48
 energy: -67.219776994156 gnorm: 0.000406560696 xtb: 6.7.1 (edcfbbe)
C           -4.74015259953958       -0.81444492111706        0.36727307695859
C           -3.56263639667448        0.08029237007601       -0.00106699874571
C           -2.23777927364628       -0.67791004120831        0.04056860069084
C           -1.04904058871318        0.22072372833503       -0.29069884876638
C            0.27881621023335       -0.52718689501298       -0.19136075010660
C            1.47401235563640        0.39154393305494       -0.43040561944852
C            2.79811041700966       -0.33912944827846       -0.22056464127510
C            3.99043878145507        0.60689563930579       -0.33688227703577
C            5.28208117955782       -0.06168080773778        0.04981773487955
O            5.40557882557158       -1.23116710598207        0.33453312131660
O            6.34872321840850        0.73661448726465        0.09054545916194
H            6.60147772719055        3.61386426028619       -1.48141381858999
H           -4.61651926215908       -1.21467644901483        1.37146820540048
H           -5.67257589789058       -0.25571805187242        0.33439486232606
H           -4.81762940672928       -1.65022382544733       -0.32497831408155
H           -3.51957021793068        0.92131071883816        0.69491097549129
H           -3.71726111904615        0.48702874335994       -1.00306476439361
H           -2.10295180247332       -1.10302395859250        1.03848542462482
H           -2.27682618354843       -1.50979669711870       -0.66704572527164
H           -1.04200730029831        1.06468498391356        0.40325893693562
H           -1.17152063209280        0.62175233060973       -1.29941237806502
H            0.35922148796290       -0.97323724438635        0.80329937815675
H            0.28890210377736       -1.34512276067973       -0.91574387039584
H            1.40669291345648        1.23209967511805        0.26365237960698
H            1.42261076447116        0.78771878557760       -1.44639795172138
H            2.80250588657104       -0.80179639852553        0.76938134239909
H            2.89372495152494       -1.14963021365293       -0.94603160549196
H            3.83080536243144        1.46159476783570        0.32359494692152
H            4.07088122339651        0.97113651033169       -1.36293124641697
Cd           8.74472673112870        3.09965333269413        0.16389902523631
O           10.78027596535651        3.26544229944292        0.85403519257768
H           11.12931034109867        4.02624314449989        1.33812737547727
H           11.52655625392180        2.67049499319121        0.70222838044738
O            6.64351288064238        3.32277184434943       -0.55678827140947
H            6.13694299755156        3.97642735641821       -0.04937985652510
H            6.17835888903810        1.67737405860245       -0.21419943823047
O            8.47099531323726        5.15348027495674        0.81229198147417
H            8.28217460901511        5.40318033983336        1.72671754783726
H            8.68224697513108        5.96863239756997        0.33709831533765
O            9.04610044749536        1.11240509981516       -0.54749447348141
H            9.72072136075817        0.49259067629701       -0.23902166770032
H            8.21060737108244        0.61536068933755       -0.53158962541890
O            7.93120887890000        2.34869239876378        1.95917518404310
H            8.43459033109310        2.11825981930348        2.75207314010864
H            7.33561251867368        1.60120813280277        1.79033593442500
O            9.25409352407340        3.69417415900006       -1.83239942455085
H           10.02301365209989        4.25162470395193       -2.01769234956265
H            9.34152778177250        2.92429880382544       -2.41460260514006
