48
 energy: -67.216964960074 gnorm: 0.000217152918 xtb: 6.7.1 (edcfbbe)
C           -5.33862724098025        0.21556814962459       -0.41566989267875
C           -3.96657487570433        0.79948076145444       -0.73147127842299
C           -2.84140101743084       -0.02300992290566       -0.10728932453055
C           -1.46247489575012        0.55485371513298       -0.41742087841133
C           -0.34245178953632       -0.27029374537022        0.21267616405942
C            1.03956480206810        0.30333609749379       -0.09159156575301
C            2.14696178777023       -0.52558969598106        0.55344694769135
C            3.53216760795062        0.03699221173696        0.25082669212437
C            4.62471582687955       -0.73976839347071        0.93183315144077
O            4.45811732770984       -1.63952021111052        1.72715845081532
O            5.83361876765897       -0.33289234249527        0.57367019423311
H            6.54214171030312       -0.83167330805102        1.02892604614871
H           -5.41823024150242       -0.80025046738438       -0.79661572650020
H           -5.50469506991847        0.19051198058519        0.65912551257132
H           -6.12447194692274        0.81446689279474       -0.86975680258188
H           -3.91544694083514        1.82443509112271       -0.35711648674277
H           -3.82989566003777        0.83567676484895       -1.81462477455343
H           -2.98329167960707       -0.06025312501466        0.97557067960909
H           -2.89723657730093       -1.04827916965527       -0.48111061503769
H           -1.41200426110264        1.58057803220243       -0.04466715701726
H           -1.32376017413378        0.58949384944229       -1.50049186285269
H           -0.48929919667262       -0.30664934881484        1.29476452927435
H           -0.39969533565098       -1.29591833821135       -0.15941584637638
H            1.08874382224473        1.32972192808128        0.27802077364717
H            1.18479567501783        0.33040576959337       -1.17345770911997
H            2.00117716417509       -0.55539437261035        1.63530830360668
H            2.08979988002850       -1.55577364562206        0.19573776123308
H            3.60372360965600        1.07258471037400        0.59131432945904
H            3.72889290886348        0.03368170311428       -0.82259096660534
Cd          13.03239806469479        0.40331997610689       -0.87327912127361
O           15.13437816913570        0.50172811264755       -0.50979806264778
H           15.56486243053465        1.35587727637269       -0.36517088246053
H           15.74649359565572       -0.17527696144853       -0.19104300323603
O           10.93472414758724        0.30935466710426       -1.24154538932563
H           10.32981840659131        0.99762955381648       -1.55089189718323
H           10.51060131026516       -0.53834488338160       -1.43532084575094
O           13.01128509961386        2.54831525888296       -0.80437343038538
H           13.08641598977142        3.09173931507949       -1.60111795691918
H           12.66680640616562        3.12510897563793       -0.10868808245217
O           13.04778761000185       -1.74200420523237       -0.94661228611592
H           13.41639677132065       -2.31261504506730       -1.63492303970347
H           12.97452567023568       -2.28473396093510       -0.14911995055377
O           12.59576835047413        0.27403408957077        1.21397951463735
H           13.16448855852376        0.42262979125038        1.98193257708459
H           11.68320631550447        0.31580345314269        1.53243789385255
O           13.47559662934088        0.52626624331840       -2.96072104160766
H           14.38807758598613        0.49164429357901       -3.27955808048783
H           12.90815532102934        0.36254471871538       -3.72647576404580
