51
 energy: -63.244862619718 gnorm: 0.000419653501 xtb: 6.7.1 (edcfbbe)
C           -5.78609282867424        0.14277751515068        0.24163316626872
C           -4.44124344404652        0.78002537938612       -0.08723770296047
C           -3.27578577268479       -0.15248729314836        0.23493545702778
C           -1.92498129623608        0.47861864691505       -0.09328116426967
C           -0.76179347839678       -0.45828810866973        0.22375669725825
C            0.58966380578873        0.16940779719356       -0.10789248526530
C            1.75019448643377       -0.77221535703919        0.20559415664902
C            3.10337472628873       -0.15030556336562       -0.12925861074656
C            4.26080321083902       -1.09650032560747        0.18598181603274
C            5.61070555618474       -0.46846088600773       -0.14297739316360
H           -5.84279812768819       -0.10584681133380        1.29923081620059
H           -6.60113854524816        0.82288434225275        0.00571472896051
H           -5.92618186423708       -0.77131034779815       -0.33140298116421
H           -4.33166060096559        1.70596224263644        0.48201299753411
H           -4.41444714531884        1.03889529616610       -1.14823063676279
H           -3.30741473575790       -0.41182321630837        1.29609211437046
H           -3.39125651249355       -1.07893750774962       -0.33312358429493
H           -1.81377630468118        1.40317213273435        0.47840651340899
H           -1.90152494951945        0.74124890355395       -1.15371412823432
H           -0.79192744636173       -0.72001652629394        1.28450033801596
H           -0.88302779378585       -1.38370515260033       -0.34504466993794
H            0.70257030047414        1.09290817455659        0.46500306104395
H            0.60811923056241        0.43234572770024       -1.16826070645228
H            1.71879461744628       -1.03473991376457        1.26640514363447
H            1.62060286067486       -1.69755938839198       -0.36205783015580
H            3.21523640208034        0.77315635808107        0.44340534992968
H            3.11630206136972        0.10783992124523       -1.19064112753160
H            4.21934050206429       -1.36323651653483        1.24492591638794
H            4.12651777823794       -2.01892048483678       -0.38470350054716
H            5.74275950327135        0.43084017157084        0.45176141189679
H            6.40300030880687       -1.17161590306316        0.09260278476261
H            5.63870553457020       -0.21766968434302       -1.19948337825001
Cd           9.39612668937062        1.00616253949184       -0.91464842534632
O           11.10646715315994        0.21000390813341        0.15756824445459
H           11.71436106543811        0.84682813443515        0.55955131924134
H           11.62011379759413       -0.59419077195820        0.00258915229634
O            7.58586573530989        1.77244526681978       -1.76848560442124
H            6.87314872248040        1.88129924423201       -1.12352142845494
H            7.40323416749414        2.39197108179146       -2.48779088735733
O           10.16172241347168        2.98369045322048       -0.49817636505281
H           10.76759005451649        3.32224179128941       -1.17361883005327
H            9.64693159018381        3.74511722677009       -0.19748453890906
O            8.80450065344307       -0.94285821483187       -1.54180973787606
H            8.92287492585108       -1.78132566444590       -1.07567164514205
H            7.93125112816226       -0.98895005767121       -1.95671579503809
O            8.38005402254631        0.96555535356925        0.96758081980407
H            8.45122882196199        0.13118059396081        1.45244786456879
H            8.58682061378170        1.65673308364471        1.61292237132597
O           10.48608074740534        1.17341987447573       -2.76946978498521
H           11.29828088590308        0.66152458262666       -2.88943968274028
H           10.01439339290379        1.11732604221141       -3.61236781594042
