51
 energy: -63.206906728767 gnorm: 0.000133956462 xtb: 6.7.1 (edcfbbe)
C           -7.28459406083361       -1.61624400402900       -0.76287153480050
C           -6.56567341107536       -0.40774208029636       -0.17237406917179
C           -5.06698456401897       -0.46036840729825       -0.43375650801619
C           -1.28208748604641       -0.34418479103053        0.24806481184125
C            0.09902386175501       -0.94881963487642        0.48015728358136
C            1.21759666887974        0.01697335598634        0.09272595883754
C            2.60024133232272       -0.58956060971431        0.31774569990582
C            3.72233800451268        0.37604946956882       -0.05654778539633
C            5.10357391721534       -0.23867780864046        0.15642418175692
C            6.22113174219883        0.73020174166006       -0.21192143369875
H           -6.89791404946367       -2.53248128450761       -0.32358789614489
H           -8.35078657197203       -1.57369185061133       -0.56114655451585
H           -7.14070529619121       -1.67350507886984       -1.83870189646252
H           -6.75082426860449       -0.37075665344955        0.90304009161284
H           -6.95750182868541        0.51059225643714       -0.65010555806761
H           -4.60396987906081       -1.25543762441375        0.15932924447002
H           -4.88269418570813       -0.65454340085598       -1.49615967952307
H           -1.37278845620291        0.56667311583377        0.83381194928481
H           -1.39748246715854       -0.11644494259473       -0.80891341728487
H            0.21312511719001       -1.21902730863172        1.53257794273488
H            0.20513459539347       -1.86596185655448       -0.10407227851673
H            1.13349056736670        0.93160810083820        0.68421947650390
H            1.11857125297063        0.28861279007637       -0.96090441701896
H            2.70870139659278       -0.87280940528453        1.36805576500612
H            2.70035158912826       -1.50135668226043       -0.27709848238438
H            3.63993474891676        1.28286798421047        0.54739502124193
H            3.61994905958808        0.66499284449972       -1.10533436197144
H            5.21220080916442       -0.53354452623073        1.20302856003315
H            5.19554428834884       -1.14289450654046       -0.45030856067548
H            6.14488602648080        1.02280223706152       -1.25689029589587
H            6.16673560739234        1.62789081660927        0.40006496366006
H            7.19427108889030        0.27004452915913       -0.05680324611483
Cd          -5.97160606062293        2.34500524361732       -0.24175583180832
O           -4.50287695933296        0.80287937978705       -0.05728545667922
H           -3.55315735702307        0.75772768199313       -0.24259761176028
H           -2.04608142424906       -1.05364426127499        0.55488040238922
O           -8.02994635357326        2.96104915471576       -0.38172777859648
H           -8.35413464380940        3.87319305956360       -0.43650225008074
H           -8.74520983847163        2.44968813614160        0.02728257122434
O           -4.75887888331181        4.09039424090470       -0.23519559385650
H           -3.83469086476577        4.11357342605066        0.05497747951318
H           -5.04496354042096        5.01322958070505       -0.31278035606862
O           -3.56790339540265       -2.68860982561011        1.54507413651519
H           -3.36017393609384       -3.59424304837574        1.30173893162724
H           -3.66209594928355       -2.67394498628844        2.50258910053870
O           -6.08928930004536        2.28001418658945        1.87825765694931
H           -5.44469250031004        1.69382085159157        2.30390624908298
H           -6.24579671736789        3.00844435331283        2.49922018533927
O           -5.88784400797236        2.28256263529546       -2.37323343415956
H           -5.20624858910358        2.75065141362200       -2.87970660229601
H           -6.69640195807434        2.32833968238012       -2.90628477271993
