48
 energy: -67.033938522741 gnorm: 0.004547829116 xtb: 6.7.1 (edcfbbe)
C           -4.01442912512991       -0.57867723266350        0.31034281356668
C           -2.84584002177460        0.21714707476484       -0.26162855123739
C           -1.50942757339619       -0.26142031499476        0.30461828373654
C           -0.33876148785139        0.52171576515413       -0.29538720257833
C            0.96863925966328        0.24358523050123        0.34566255433627
C            2.21149277786889        0.36237159561274       -0.36256600295338
C            1.87822894326024       -1.16375633403448       -0.26909432994518
C            4.55934405345783        0.80674321895794        2.37203144679874
C            5.25451744821936        0.42327287368639        1.47283344744058
O            5.83681910278268       -0.02085773556694        0.39713637524566
O            6.72980429661340        2.05013477888293       -1.64062446712180
H            7.32348403754931        2.54396741506712       -2.22204766918901
H           -4.05476295914142       -0.48341296499716        1.39462944864785
H           -4.95771467439712       -0.21702889600106       -0.09345506810017
H           -3.92556513840963       -1.63541406907487        0.06274276012867
H           -2.98867690357589        1.27522726886966       -0.02741056702867
H           -2.84579782867350        0.11613902808868       -1.34983570939296
H           -1.52901112669301       -0.14183603477060        1.39048450975675
H           -1.40560271168749       -1.32698192130829        0.08183217318090
H           -0.51904412284828        1.59056553330575       -0.13602833346960
H           -0.29668270370816        0.36234704558602       -1.37365216304476
H            0.98527223304573        0.26118347821534        1.42908329540573
H            0.95666206425397       -1.45562610980128        0.29354433152279
H            3.09153025642536        0.65497474143571        0.19460646773564
H            2.17518660001208        0.75694173828019       -1.36784772921125
H            2.67051785938070       -1.65736222158574        0.28838919809484
H            1.70923532955401       -1.55214310843156       -1.27008951151582
H            4.10096530486610        1.21288785407753        3.22049382006803
H            6.10151980194987        2.69660196025538       -1.28952190558127
Cd           8.00896029691355        0.56616928295654       -0.32792713072435
O            9.59807223269131        1.64018742965893       -1.61859062446731
H           10.21537441014478        1.88446009862535       -0.90312642378437
H           10.12833367876133        1.09996261597608       -2.22138734087424
O            8.32378915348817        1.57354414146022        1.37465008178731
H            8.06925344335190        2.49754217049662        1.30839819819468
H            6.26398394856569       -0.90512241157285        0.57962402110050
O           10.83920625462260        1.57256202524741        0.85119260366082
H           11.39692453167159        1.98021959303277        1.51572479495730
H            9.88309633914767        1.62680513543102        1.19518032805642
O            7.30673640879582       -2.16628614595460        0.81524465953420
H            7.20642780306925       -2.82256326407392        0.11060653581031
H            7.15739866727167       -2.61931851168480        1.65293417633481
O            9.74241997116514       -0.80133022880604       -0.04827180498688
H           10.40767744053897       -0.18324051493820        0.31339051058407
H            9.61374688396918       -1.46943256340888        0.63813249397841
O            7.29138408335717       -0.87774517710494       -1.89785463221536
H            7.91224866352995       -1.10474467254159       -2.60305997867850
H            6.49614579751094       -0.53605591015721       -2.33410218366211
