48
 energy: -67.123966016609 gnorm: 0.000359024026 xtb: 6.7.1 (edcfbbe)
C           -3.92553518081903       -1.26535757225605        0.42881051834297
C           -2.90352110099918       -0.32713043686354       -0.20262389250175
C           -1.50958739397842       -0.52358977159103        0.38874606137621
C           -0.48474587702798        0.42950232168074       -0.22209855555934
C            0.90291547760993        0.24448361333674        0.38750783148501
C            1.91390440971762        1.24157021172822       -0.17523776151607
C            3.28254752150262        1.09195867184511        0.48629842176342
C            4.26357053459946        2.15229474928393       -0.00992818493757
C            5.56858254032094        2.15608705473923        0.77726797352015
O            6.31051033302887        1.00939055919972        0.38255947920822
O            6.35560214622749        3.28639956465321        0.58257720517044
H            6.33288067814396        3.57353410535280       -0.34257836221274
H           -3.99485217658368       -1.08993912823131        1.50033553136606
H           -4.91005467140021       -1.10945643480435       -0.00621559809937
H           -3.64222657171270       -2.30353325416465        0.26991691515175
H           -3.22065505405767        0.70705500446680       -0.04766124401721
H           -2.86972780773874       -0.50268382412806       -1.28044440911943
H           -1.55690876267867       -0.36176012239556        1.46846299596175
H           -1.19421980509547       -1.55620517350812        0.22248744093814
H           -0.81828933056944        1.45815486087127       -0.06282415856616
H           -0.43878146996393        0.26393440623507       -1.30108712579357
H            0.83030854981518        0.37397714255327        1.46988082662442
H            1.24207042367944       -0.77544483161579        0.19648546504256
H            1.53780144615764        2.25389863553260       -0.01001204687036
H            2.00059957368925        1.09598499085347       -1.25367162745471
H            3.15859074232893        1.18924784260975        1.56637213498413
H            3.67125684959439        0.09707854504673        0.27558593584496
H            3.81599358214964        3.14001954770714        0.11105594518271
H            4.47547920567351        1.99798861550504       -1.06827707363365
Cd           8.85256897462578       -0.76132007251305        0.32715859581147
O           10.25405589226597       -2.20889168981091       -0.30542811680728
H           11.13712329147485       -2.01881924689542       -0.65104963492486
H           10.09074545953887       -3.14787207343579       -0.46929421573320
O            7.46957236705188        0.90154662353983        1.21213695588326
H            7.87084333064227        1.80128805711249        1.17137396262548
H            5.37419686932509        2.10401985280642        1.85739199091860
O           10.16311313387413        0.90166329897594        0.03648614581193
H           10.31132196681572        1.25570877513789       -0.85289135472080
H           10.95582961962649        1.10297698301483        0.55436954005520
O            7.23452214340056       -2.08852244859025        0.65368337981755
H            7.25577767023994       -2.93016764233751        1.13304945782256
H            6.44730702945095       -1.62117029964677        0.96843754637346
O            9.45822304710432       -0.90143607689371        2.35903584564185
H           10.12982140313425       -1.46990789882934        2.76212280343675
H            8.95505941089515       -0.50190012280265        3.08171241000832
O            8.11692927269999       -0.39230149570881       -1.60772523936827
H            8.09043205717006       -1.06193642894579       -2.30770763640215
H            7.22214276903743       -0.02516046779593       -1.55165782792111
