48
 energy: -67.220394841846 gnorm: 0.000223881868 xtb: 6.7.1 (edcfbbe)
C           -5.02679724099836       -0.78758211581510       -0.22835420363014
C           -3.82212146853663        0.07576428665996        0.12708199733302
C           -2.50545587416552       -0.65035156250139       -0.13883369114879
C           -1.29087217132016        0.21057761524549        0.19919917063018
C            0.01977014528833       -0.51340265488778       -0.10073468069230
C            1.24160700673774        0.34977524047481        0.20226997537937
C            2.53638312194635       -0.36551925298079       -0.17520017640604
C            3.76596675450884        0.50166124070934        0.08108970110541
C            5.02594428443377       -0.15322164518668       -0.41888920122691
O            5.08869616535904       -1.25345709788689       -0.91870692831149
O            6.13568853260664        0.57409267754987       -0.29667852871171
H            6.41693751265850        3.22421882349592        1.66630257348531
H           -5.00456548529504       -1.06013885232716       -1.28144090123490
H           -5.02880421594210       -1.70281539252209        0.35992566381041
H           -5.95381839578772       -0.25363639959930       -0.03298297062465
H           -3.87647894006319        0.35437682409192        1.18194308062519
H           -3.85319874988510        0.99597564992436       -0.46083608075003
H           -2.47710860968494       -1.56900702003975        0.45250103714559
H           -2.46393501942603       -0.93808044381678       -1.19245439218095
H           -1.32738470888930        0.48201266293671        1.25674437289133
H           -1.33817214934916        1.13417785419702       -0.38253240166633
H            0.06471856990285       -1.43314904978877        0.48766923625837
H            0.03187283727523       -0.80182673674147       -1.15493258278166
H            1.24783486860727        0.59617746738037        1.26585122570714
H            1.15855468243192        1.28185474606125       -0.36058266741028
H            2.61929193655935       -1.29768710539634        0.38789908341850
H            2.50328436100242       -0.63990337839547       -1.23234579439691
H            3.86513103317980        0.68936728366622        1.15214925955950
H            3.64257388238864        1.45890133813257       -0.42989532188786
Cd           8.61726206651180        2.83252552608912        0.05625343464533
O           10.66856526226257        2.98225631061141       -0.56826141595863
H           11.04908187401972        3.79194933723232       -0.93539453104407
H           11.41175470993070        2.40525780310429       -0.34791382468185
O            6.49786603228821        3.02581329050773        0.71989379399325
H            6.01676771437180        3.72908753226127        0.25651282247274
H            6.00192769742048        1.46039293218296        0.15609185282919
O            8.40763273277895        4.93633060521450       -0.43835741298238
H            8.60472068598810        5.72026303233197        0.09187446765251
H            8.22655908667852        5.24360263029401       -1.33683055722510
O            8.80309247857947        0.78158252395586        0.60718069600134
H            9.49072415629279        0.16850623531045        0.31381881731408
H            7.96287027994669        0.31115607693657        0.47724774348873
O            9.06772755853190        3.25517225069341        2.11520381965591
H            9.75491661736825        3.86206729995078        2.42424739743762
H            9.17313591803955        2.44368679783061        2.63394581954102
O            7.89698864208575        2.28679104960873       -1.84533599935878
H            8.47405734369118        2.10187336958103       -2.59920030790812
H            7.27325573781536        1.54437382358086       -1.79620247017090
