51
 energy: -63.183351704215 gnorm: 0.001504604138 xtb: 6.7.1 (edcfbbe)
C           -5.56019809637965       -1.63908073533579       -0.85194276603355
C           -4.78961914055400       -0.41581236735107       -0.36758458226361
C           -3.29084875004305       -0.54252945731507       -0.63130982266180
C           -2.51504926050825        0.67994803851243       -0.14298581641009
C           -1.01536942512845        0.55470673779616       -0.40216088349326
C           -0.24609228699165        1.79041628991118        0.06470295415522
C            1.25030922633652        1.66439312514623       -0.20072262052735
C            4.16642931550514       -0.49515370897465       -0.66221048063590
C            4.65161205005572       -0.03021549343678        0.68617246106774
C            4.98646532337489        1.22375543847985        0.95526102455205
H           -5.21398366496934       -2.53692239101923       -0.34410344842356
H           -6.62382266871339       -1.52524571054968       -0.65362343899912
H           -5.42670805581381       -1.77837438881419       -1.92269364430829
H           -4.96122885081534       -0.28411839474145        0.70375159263210
H           -5.17381012934565        0.47390604607487       -0.87279854211943
H           -2.91811243757462       -1.43833235415630       -0.12819366219287
H           -3.13034461261847       -0.67264946953030       -1.70431271009698
H           -2.69347130085544        0.81030037551261        0.92778174515703
H           -2.90126067816498        1.57052965279136       -0.64663689689458
H           -0.64303536537561       -0.33045911805049        0.11892374465485
H           -0.85711394604590        0.40690901370689       -1.47276083667341
H           -0.42615640527673        1.93601697223343        1.13298952872267
H           -0.64408612478013        2.66829447898916       -0.45124958924642
H            1.64329208084719        0.81180923113818        0.34564298011319
H            1.41401698951693        1.52469414318550       -1.26532085773361
H            3.40246630599753       -1.26112875222898       -0.51445227759529
H            3.72555536390022        0.33021087939600       -1.23122989587429
H            4.66945243924528       -0.76473429789495        1.47850722033514
H            7.30926299390349        1.12472493546765       -0.99338254671565
H            5.24554303822136        1.56388765055798        1.94385946234677
H            8.49555748393293       -5.45386898030059        4.03637536261836
H            8.07588528554430       -1.95117049703183       -0.87326508680722
Cd           7.21212030510415       -1.83663945550329        0.43008636897942
O            8.17556056099404        0.82167630416040        0.21233964867439
H            8.13373901200049        1.40965925762374        0.97771955020737
H            9.10609877360626        0.76932080548487       -0.04049382893359
O            5.28643034514439       -1.03661517155654       -1.39058710178606
H            1.75048716754792        2.56982147566636        0.12679082596220
H            4.94973923080909       -1.57723661581851       -2.11933077802812
O            4.93082368606413        2.22395969027645       -0.03467571400406
H            5.48591295866362        1.95798776503963       -0.86310759648308
H            5.19091328234680        3.10465914236592        0.30611056531786
O            5.38611454437177       -3.31064166825241        1.05109231244806
H            5.46131113815781       -4.19416998922998        0.67037958620219
H            4.93667358024869       -3.43755720653628        1.89560248811428
O            7.36209581880790       -0.77841767071022        2.55289128572760
H            8.19794054377965       -0.91454928856206        3.01648298826149
H            6.67950564371673       -0.89291139277207        3.22586960058242
O            6.57736248736877        1.20237003549139       -1.72303707409569
H            6.96910660164285        1.43246296741050       -2.59049493325912
H            6.15167819334367        0.28224134284118       -1.76466586431323
