51
 energy: -63.229334166858 gnorm: 0.000191577293 xtb: 6.7.1 (edcfbbe)
C           -6.44759276200678       -0.18351233621809        0.10351460202695
C           -5.17388736629137        0.64823483908609        0.19636416126865
C           -3.92224277878615       -0.20264630662927       -0.00788521535459
C           -2.64385275948936        0.62886005286222        0.06002493265851
C           -1.39445593410077       -0.21792788495777       -0.17557864219977
C           -0.12098615016996        0.62582683517367       -0.15866191162318
C            1.11837333625898       -0.21565743614498       -0.44820199590995
C            4.79874768030760       -0.47985361798817       -0.05797424916398
C            4.75111818259350       -1.96143905116823        0.30593466623576
C            5.31094199077282       -2.81833258454085       -0.82378823030037
H           -6.45264006363176       -0.96459901358785        0.86103663820407
H           -7.32652139930875        0.44009304559892        0.25084890546919
H           -6.52608897136659       -0.65695055704081       -0.87320202966363
H           -5.13085197676393        1.13086153632936        1.17543823246644
H           -5.20493154366012        1.43552457302547       -0.56065485503641
H           -3.89355223381386       -0.98485448042699        0.75502224294673
H           -3.98453865126856       -0.69745980709200       -0.98083094127570
H           -2.58580678298928        1.10920814774846        1.03940168404636
H           -2.69842459798477        1.41690695202962       -0.69524860842393
H           -1.33856849702741       -0.99374381949022        0.59222244145566
H           -1.48756043214213       -0.72330386795635       -1.14081787119139
H           -0.03626392071361        1.09545423616161        0.82255835081277
H           -0.22502803232126        1.40603266292779       -0.91533329114318
H            2.00656798990472        0.40891476960581       -0.48511300836547
H            1.01359514616529       -0.71766280248023       -1.40799205917695
H            5.82898979676560       -0.18413560205931       -0.25902729351228
H            4.19730714138151       -0.30897573325594       -0.95706728308195
H            5.32890242258614       -2.13810949357574        1.21471945016453
H            3.71847547634555       -2.26078215269375        0.49804774171630
H            4.73990531831188       -2.67452603044778       -1.73815645560397
H            6.34995507668753       -2.56954784387493       -1.02625164978105
H            5.26408952935607       -3.87261765067543       -0.56229535752335
Cd           4.50795488794211        2.51184198250011        1.06646059706457
O            6.65942392381431        2.35565867799212        1.01830007942522
H            7.26677678033301        3.02309466775862        1.36949974165842
H            7.08644522713253        1.50046618164267        1.16462193431889
O            2.37591511357677        2.77273221178186        1.08527050733136
H            2.06314255776164        3.66391560176147        1.30519516479294
H            1.89436730397907        2.52106124498943        0.28460904790739
O            4.62869707563762        4.63966384126605        1.35717027763808
H            5.02369706673023        5.32790041101030        0.80431814117647
H            4.74241202599166        4.92643097814363        2.27487379429168
O            4.33619071986696        0.33813662962060        1.02000041091168
H            3.45024734502817        0.01521794289580        1.25108566310631
H            1.23427142050795       -0.98296880106097        0.31361620204625
O            4.43496898213599        2.32997705086142        3.20747135837288
H            4.98257228256652        1.70285705955326        3.70100543801681
H            3.54772148208319        2.26815789861268        3.59054140626818
O            4.51014010797914        2.62059890511083       -1.08280271417022
H            5.37075064359572        2.48123615216598       -1.50406164727527
H            4.05684342966540        3.28552036512997       -1.62124486400890
