51
 energy: -63.186345756159 gnorm: 0.000239958550 xtb: 6.7.1 (edcfbbe)
C           -7.65401826447570       -1.84754737749134       -0.34671867150413
C           -5.79449499015710        1.84889285992311        0.64597338605503
C           -5.00440349892032        0.64548512855868        0.14189215960300
C           -3.54747163869236        0.68231828186047        0.58300287533564
C            0.29688940688021        0.49920650805645        0.16717358137570
C            1.72881017015111        0.96411103746218       -0.07872160920084
C            2.73293639257438       -0.17441367533122        0.09444616078176
C            4.16682210832933        0.28052328817700       -0.16394357181703
C            5.16972695642121       -0.86235778976319       -0.02105348014042
C            6.59758838400361       -0.40060141843753       -0.28678958108538
H           -8.52170962123358       -2.31065406624912       -0.81865800521313
H           -7.92089518882886       -1.53423484991744        0.66513320754979
H           -7.36058771879429       -0.97924403088416       -0.93411354292349
H           -5.78183892844820        1.90385655723005        1.73144965364671
H           -5.36382383418447        2.76847885773299        0.25792757487669
H           -5.45602628054531       -0.27473745863690        0.56186747557957
H           -5.05109354130024        0.61972378339942       -0.94996935703930
H           -3.48412695725089        0.90396059672300        1.65488072168646
H           -2.99801129991572        1.45437485663653        0.03560947642569
H            0.20602151568518        0.15242180790268        1.19367704330541
H            0.06905714161090       -0.31183382013087       -0.51898240562304
H            1.98219810216862        1.77077517414469        0.61330085463629
H            1.81945727011879        1.36452690441618       -1.09105378121228
H            2.66547657765418       -0.57203922079883        1.10990999707620
H            2.49137062100190       -0.98305531023500       -0.59922437558862
H            4.43042848944359        1.07695007672748        0.53693257586793
H            4.24205373411175        0.69588943960630       -1.17231723898963
H            5.10842167302847       -1.27612102495406        0.98815925968699
H            4.91496495571185       -1.65908201703420       -0.72362350909005
H            6.68998304027514        0.00001203354018       -1.29429597593283
H            6.88609232828051        0.37859671655757        0.41589311051538
H            7.29606794615436       -1.22793652447913       -0.18346463794312
Cd          -4.51038951219594       -2.07118083793487       -0.00715733045107
O           -2.97893476078750       -0.60546721884926        0.31291726380786
H           -0.39099976495658        1.32382888835992       -0.00040937086004
H           -2.03188162543743       -0.55811112900181        0.51046149421682
O           -6.55224357785257       -2.76432514431681       -0.33326123768313
H           -6.82901928334901        1.79800622976031        0.31866915800964
H           -6.86845232869296       -3.56967774906166        0.10608312866296
O           -1.79166302710711        3.21918527646387       -0.64528702993715
H           -1.78173184911041        3.51538235907232       -1.56047958084914
H           -1.59635263325703        3.98829946804244       -0.10322528072455
O           -3.43579307496383       -3.89102370920129       -0.06689968934386
H           -2.46718002321083       -3.93661672514912       -0.05319907289766
H           -3.73954548314533       -4.67830056977698       -0.54435320103033
O           -4.81093014798052       -2.40856629626989        2.09784597854559
H           -4.48856928866218       -1.79106979875996        2.77243998035282
H           -4.64428434109483       -3.29588481333275        2.45413378515272
O           -4.40244707323974       -1.81455505199522       -2.11769454654835
H           -3.61022095507373       -1.53030666247271       -2.59817872885152
H           -4.96426534073890       -2.27921692991103       -2.75670509025907
