43
 energy: -73.366647628343 gnorm: 0.000121408291 xtb: 6.7.1 (edcfbbe)
C            0.45733604596234       -0.98058566709837        0.05281777560642
C           -0.28394183573527       -0.23071060401673       -0.85931580970134
C           -1.66282459273736       -0.23466701064552       -0.78518351203469
C           -2.31514509648636       -0.98824024617728        0.18913443398167
C           -1.57175710345603       -1.73970479511021        1.09762565722939
C           -0.19172163564581       -1.74057979633858        1.02348038546126
H            0.20251281867852        0.33048363029080       -1.64056891911364
H           -2.25984605911100        0.34071969427510       -1.47527840252045
H           -2.05726113410643       -2.29955458933761        1.88194264786626
H            0.38686266943694       -2.32261437939900        1.72287297867268
C            1.93936878855271       -1.04969581663013       -0.02589265954056
O            2.52577606792892       -2.12299495787747       -0.00889809453348
O            2.67793138843882        0.02950752898430       -0.10059732486760
C            2.18981410445583        1.37854187414563        0.08146419620696
C            3.23448430655707        2.11674945757414        0.90480582204133
H            1.21699716502130        1.36872138415785        0.57613221246728
H            2.07993702566465        1.82900434738946       -0.90758268403714
H            3.04264719535632        3.18366383115938        0.85827560615915
H            3.18741639555663        1.81024004667559        1.94471902952339
H            4.21646038015280        1.90533912264431        0.49559506617500
C           -3.80298477505736       -0.92344852878702        0.23348468934764
O           -4.41171655810503        0.04723698813654       -0.16349072534362
O           -4.45683580753404       -1.97100905370475        0.72552253847362
H           -3.89146895371344       -2.73374673042262        0.94677526814793
Cd           4.75046619727450       -1.56078469997816       -0.65146462009154
O            7.03868099943689       -1.62538938105639       -0.85797633060561
H            7.67761113444946       -0.95252422302940       -0.56350832148380
H            7.34081528828701       -1.92071297112796       -1.72424284140237
O            4.40578293909576       -1.85764076265527       -2.56314826918656
H            6.59972112121978        0.51826767428129        0.83156178094307
H            3.93608445008892       -2.67880078119815       -2.71059806643287
O            7.18083481154568        1.00396058107707        0.16471740061316
H            7.43950948381031        1.88647775720433        0.48544103126546
H            6.59251077488143        1.06120832207482       -0.65378354201172
O            5.20775658903524       -3.39819627472670        0.73148345088877
H            5.91574308699308       -4.01084287353138        0.48932004733882
H            4.44095164764785       -3.93944344438989        0.95795519542876
O            5.46943719316017       -0.53788627520876        1.37618380776596
H            5.95985202212545       -1.28818135721092        1.74705734427188
H            4.84396517412418       -0.25933122069598        2.05909764819057
O            5.32975827787077        0.70289212056073       -1.61387799857461
H            5.51618579883998        0.26958097734938       -2.45838814203300
H            4.68606978992558        1.39532868243584       -1.81366975054548
