49
 energy: -79.671798615447 gnorm: 0.001046761160 xtb: 6.7.1 (edcfbbe)
C           -0.85716039980825        0.83123180125430       -0.51786970181882
C           -1.99541459663353        1.55149899051340       -0.07707391666101
C           -3.24370968395665        1.02580418127404       -0.30735030383000
C           -3.38875640897486       -0.19932494531001       -0.96469992250003
C           -2.26611050147192       -0.90055165548520       -1.41882905539197
C           -1.00379469913581       -0.40520426672197       -1.20105721208495
H           -1.88591330223315        2.50014731112237        0.42145286157406
H           -4.12687013648682        1.56079008950919        0.00467941841411
H           -2.39284958508342       -1.82820442130693       -1.95472380499087
H           -0.13778080209932       -0.94860021465367       -1.54391280261176
C            0.39135316860646        1.32241448208285       -0.31925310366341
O            1.44037880947669        1.69254729511767       -0.17524819668445
O            3.28753644227254        3.72756515064914       -0.23171839316377
C            4.36644865803546        3.18534551514728        0.15513109916660
C            4.44406331124695        1.72518714177206        0.17338788921686
H            0.04223300942670        2.00858160525811        4.59169692509950
H           -2.29282761270512        2.66169068445840       -4.96274607589274
H            3.96719415284553        1.30748948012537       -0.70953113513655
H            3.86796634953865        1.35241127466144        1.02283685354529
H            5.47754218519896        1.39682245536797        0.26615086259316
C           -4.78060246029242       -0.66473456139670       -1.30389636010405
O           -5.50501293502915        0.07507285789700       -1.93666300852162
O           -5.18746843773436       -1.85773883760775       -0.94296813327876
C           -4.42903167813926       -2.71506740142486       -0.06524155348195
C           -5.40330640877549       -3.39838001973761        0.88031789139060
H           -3.69666171692042       -2.12774126943518        0.49357277274540
H           -3.92570103196194       -3.45764458439676       -0.68950717850616
H           -4.86300179207886       -4.09212830417009        1.51599722351559
H           -5.90850344014735       -2.66487333180070        1.50252823111554
H           -6.15243579351939       -3.94234753141211        0.31283896144948
Cd           7.88655662813763        2.73568651442952        0.43412489907865
O            9.95135658021261        2.47361152811719        0.06482363526646
H           10.62106171322819        2.42164190466365        0.76138253580023
H           10.41315792571186        2.30880669664228       -0.76982432586940
O            5.39978605415205        3.83713855204414        0.53253417737908
H            5.34323786625242        4.81937398234345        0.52642644321466
H            3.19856116052424        4.70309889148896       -0.24833432746719
O            8.07918617907759        4.82921459248252        0.48019769583229
H            8.21672016052651        5.20854643074207        1.36150438764415
H            8.70680563812605        5.28495771467677       -0.10031648937554
O            7.55154370658960        0.62410289638737        0.54406443542080
H            8.08256686122222        0.00058434407333        0.02684370499116
H            7.42853816887031        0.20246129521420        1.40891355581716
O            7.41770249563644        2.79150016206958        2.51583884374170
H            6.51377453373212        2.87555343830210        2.85125843141903
H            7.98389363338253        2.66031098620875        3.28963589167787
O            7.07138623288897        2.71910364934369       -1.51496720106473
H            7.25172770945277        3.39614314578024       -2.18384649314172
H            6.98539697183530        1.88343532399343       -1.99856093198452
