49
 energy: -79.721603568579 gnorm: 0.000170292029 xtb: 6.7.1 (edcfbbe)
C            1.63441585872059        0.23181086756430       -0.47299770191448
C            0.80575146380549        0.98262384638911        0.35875046386160
C           -0.56657313535999        0.90949593104561        0.21063172023089
C           -1.12256677351188        0.07840515965995       -0.75765242822074
C           -0.29494606374207       -0.67999527314012       -1.58253941677509
C            1.07692929135521       -0.61052360723100       -1.43300504884886
H            1.21904452004314        1.60525353373718        1.13528936425796
H           -1.22026508496517        1.49398970224288        0.83891489440185
H           -0.72651788602524       -1.31109180288517       -2.34366215169131
H            1.71589088736954       -1.20375669520109       -2.06666256373501
C            3.11253850944281        0.24473139030564       -0.31810713345804
O            3.74870993333424       -0.79934772149320       -0.27205874838492
O            3.79545425634975        1.35945486352111       -0.23588489790709
C            3.24962918503810        2.67443093376847       -0.42652290614410
C            4.27706269100720        3.49001083094245       -1.19619034099651
H            3.08337528552177        3.11424081528127        0.55912774525596
H            2.30224877555820        2.62243091461681       -0.96701352501635
H            3.96509956233063        4.52918399734378       -1.22142153665981
H            5.24070069543178        3.42654627945353       -0.69973765709054
H            4.36181565190169        3.13873927370375       -2.22008499570397
C           -2.60326157857137        0.09755821085619       -0.96021959541497
O           -3.17680848341230        1.13647339764551       -1.22750428305653
O           -3.30176560943965       -1.02189202269785       -0.86703026093643
C           -2.73273210970471       -2.26097844452788       -0.41154495196359
C           -3.72768354988307       -2.92784915026226        0.52469273791821
H           -1.78553688341948       -2.07360879602128        0.09959896343575
H           -2.56381672137351       -2.88595616199448       -1.29281422006492
H           -3.34018138029710       -3.89196572746142        0.83720577119597
H           -3.89868228579464       -2.30889635445489        1.40110630728163
H           -4.67680465350511       -3.07317343192044        0.01703342911622
Cd           5.92245632109535       -0.22793628614863        0.62157058525562
O            6.99782899492457       -0.62366829416946        2.62903882748979
H            7.92520925588264       -0.35656234293796        2.68678262576309
H            6.98077074547853       -1.56258822894533        2.86010544746561
O            6.20891161200799        0.17455379841952       -1.58522892035333
H            6.10847184322282        1.12312568895882       -1.74624493502908
H            5.70028891012642       -0.27249214410524       -2.27393955480220
O            6.59567072497179        1.81101813150483        0.87495389438581
H            7.54790654064702        1.80698784532224        0.68669127447840
H            6.50982585335339        2.16830808288783        1.77043442737701
O            5.94652761605399       -2.40755200693419        0.52799629582765
H            6.55405155070001       -2.83770000366854       -0.09098669391367
H            5.06222399709377       -2.72482605808533        0.29383746799061
O            4.36453069815063        0.04798299215772        2.32383896784939
H            4.71947918792580        0.42475868229494        3.14291433151691
H            3.95799025506035       -0.78760808247865        2.58935470709245
O            8.28110298402303       -0.41974982134809        0.12253827439796
H            8.83983243612824       -1.16592926248878        0.36994740663029
H            8.45639610503041       -0.25646744904508       -0.81330146240913
