49
 energy: -79.725515858967 gnorm: 0.000285893188 xtb: 6.7.1 (edcfbbe)
C            1.52086994394467        0.42411746596798       -1.15209148804565
C            0.37166160209278        1.20473981168151       -1.26114131074755
C           -0.87037711836432        0.62038032128853       -1.11422598387848
C           -0.97528389751958       -0.74658141997176       -0.86176000599544
C            0.17318695178208       -1.53039736917286       -0.76947793413281
C            1.41509837550428       -0.94599944958445       -0.92151897880796
H            0.45586739811119        2.25764703035813       -1.47904233950079
H           -1.76429593233801        1.21537305443984       -1.20610503228914
H            0.09167519301300       -2.58904908149521       -0.58294911397150
H            2.31551290077060       -1.53820408893464       -0.86499936772687
C            2.87732822618797        1.00391351242599       -1.38838416174225
O            3.60565902707051        0.54607790432819       -2.24912272439239
O            3.29475235978916        2.03457593324788       -0.67221188293293
C            2.57132199099733        2.54389970385037        0.46242290273465
C            3.57743021821298        2.91305267761918        1.54073280299173
H            1.87020302101068        1.79003083944126        0.82797089631918
H            2.02847425306626        3.43370409427805        0.13235055436165
H            3.05699408262982        3.34723783155310        2.38796485370580
H            4.12314058172285        2.03258073838579        1.86853242153775
H            4.29152368063383        3.63357610260059        1.15281891478331
C           -2.32260586272990       -1.33983632261964       -0.70993978497890
O           -3.33061057688442       -0.65812441009402       -0.57855750600148
O           -2.32986436037583       -2.65098968694729       -0.73356709803999
C           -3.59080806489486       -3.34232287244493       -0.61073665281173
C           -4.09825897943004       -3.36779168845590        0.82450772577565
H           -3.36836760371935       -4.34928511144567       -0.96527019166513
H           -4.31410274098851       -2.86948741574237       -1.27943051571872
H           -4.90676514692708       -4.08814496382793        0.88508911938227
H           -3.30329458828944       -3.69293160515296        1.49122313659953
H           -4.44674492048375       -2.38735716685907        1.13752280177658
Cd          -6.66898139347541        0.33672953839212        1.01879164671858
O           -4.71375369538891        0.03686367014216        1.75567342479359
H           -4.29865181764147        0.75307822979007        2.25737698028478
H           -4.13555941639814       -0.09875590750583        0.98338453188419
O           -8.71011711778988        0.68441095749056        0.39914135737080
H           -9.13925810801158        1.42312138915493       -0.05273364232949
H           -9.32971251552931       -0.05725006095548        0.37379409262670
O           -6.09884190222343        2.40007569271373        0.66624818145686
H           -5.85594197845899        2.92113597748887       -0.11073419045821
H           -6.40128884479834        3.02952000979101        1.33588422689919
O           -7.28008504258383       -1.65878932179368        1.52506395150685
H           -6.97581158460373       -2.11505335781445        2.32210376528314
H           -7.16824624048318       -2.28961688859021        0.79952394098009
O           -7.29659527016254        1.02341677386853        2.97924943763381
H           -6.89824498854970        0.73677058277823        3.81256279265687
H           -8.24918804773635        1.07917112318174        3.13984046713972
O           -6.12521389611040       -0.43766338594498       -0.88745244622265
H           -5.15616331384887       -0.49247442502393       -0.96869279007193
H           -6.45924583985028       -0.17909496583998       -1.75673453474202
