43
 energy: -73.400457519393 gnorm: 0.000299770953 xtb: 6.7.1 (edcfbbe)
C            0.70709275522056       -0.06882277965661        0.78772370705260
C           -0.47156430658598        0.39976711404844        1.36475739133799
C           -1.64013216044892       -0.31991985648448        1.21667931947962
C           -1.64426292023371       -1.51657058629795        0.49839042984927
C           -0.46287926591122       -1.98205777678031       -0.08004018841073
C            0.70707402679186       -1.26325011892686        0.07242803655931
H           -0.46369356373847        1.31552590139832        1.93480365782001
H           -2.55536574252050        0.03566765809881        1.66214743207592
H           -0.43414857306001       -2.87998738897636       -0.67717957893293
H            1.63050171132772       -1.61545623351799       -0.36039022270937
C            2.00643459563991        0.63677620290909        1.01099499462686
O            2.91929569513703        0.07862506655164        1.58932361197597
O            2.16480325742609        1.88110599630062        0.59402810701745
C            1.19074391099680        2.55918516566860       -0.21809374737973
C            1.92628280111515        3.33310673968452       -1.30028780321802
H            0.64328458096734        3.24500168033361        0.43426904411685
H            0.50174116374462        1.83552701276046       -0.66015486500838
H            1.21156974863448        3.89564705900133       -1.89192380736133
H            2.63542425944560        4.02116750834226       -0.84935672192424
H            2.47254130902837        2.65386298302067       -1.94906675960289
C           -2.92792152497648       -2.23736278772497        0.36485952906052
O           -4.00540466830352       -1.69298016581351        0.52597946627023
O           -2.92540602869501       -3.52266333208700        0.05502615624076
H           -2.05631643966342       -3.95532817899674        0.01220598836601
Cd          -7.19746326669871       -3.02304168742309       -0.21723641528314
O           -5.58115129139785       -4.18259529864724       -0.94611276924677
H           -4.69820113624526       -3.95206989381119       -0.61124524485698
H           -5.67854289271886       -5.12928908682759       -0.76805858038048
O           -8.90936734364887       -1.84797532279412        0.45767637453220
H           -8.93717387704363       -0.91772013697357        0.19386729485670
H           -9.79863472826511       -2.08050679651171        0.75584493781173
O           -6.41612848998354       -1.15889524174452       -0.90062110155578
H           -5.58386857586821       -0.95025816975664       -0.44508153542788
H           -6.25996702301631       -0.97700428688307       -1.83768525468274
O           -8.01032217989472       -4.92320587732873        0.50105710903763
H           -8.75578740814944       -5.42335563484210        0.14208682876129
H           -7.94979214135352       -5.14646331178542        1.44008670018004
O           -6.34562799703443       -2.75684322509882        1.69172164209201
H           -5.46346092204034       -2.37281771140892        1.53999951314122
H           -6.78935860051774       -2.15257161380618        2.30414227780521
O           -8.15598721993611       -3.37895062670150       -2.12453780620668
H           -7.71558655713539       -3.88430372205403       -2.82093967860652
H           -8.99073426048069       -3.06139660842837       -2.49208746922392
