49
 energy: -79.616209984630 gnorm: 0.000812406524 xtb: 6.7.1 (edcfbbe)
C            0.39309554839760        0.95899094309682       -0.11507924285574
C           -0.34907931589707        1.75546662997199        0.79860999500202
C           -1.59494845858598        1.42370953796602        1.19371081938424
C           -2.25037211486922        0.22188326556588        0.69893910310208
C           -1.48144762837191       -0.56292443779606       -0.26844086226782
C           -0.23654249107574       -0.21137501196494       -0.63399045644867
H            0.11925269635503        2.65366786808127        1.17472597516003
H           -2.13444157378321        2.03884255191702        1.89632011906984
H           -1.00636166016492       -2.35576370281731       -2.35675064007876
H            0.34528592395368       -0.77650864454975       -1.34591530888244
C            1.69776755287055        1.27219650996166       -0.53741789979509
O            2.38691031183609        0.60843684897477       -1.33717695523538
O            2.19974524668127        2.44414873897728        0.01022360407524
C            3.51589781455806        2.81712960288745       -0.36388978050112
C            4.57224306410862        2.15738148760441        0.51491934397740
H            3.54325106670468        3.90469336097470       -0.25914032153489
H            3.67788004886312        2.54109310510787       -1.41347584916230
H            5.55587412945168        2.52104227361616        0.23445125245096
H            4.38516988910489        2.38699774958614        1.56102585803751
H            4.53959011371112        1.07854132882372        0.37689340967130
C           -3.36923396389306       -0.23934471024459        1.21011911216581
O           -4.49987408118296       -0.58539405105617        1.41807336562203
O           -2.18015148551520       -1.66917402130165       -0.77049676942571
C           -1.41445500119264       -2.69536257056545       -1.40374230802134
C           -3.78492205983632       -3.66895515839750        1.79493994506720
H           -0.58186881977519       -3.01001132756697       -0.77308082860841
H           -3.67168450911707       -1.49776600318374       -1.67544409903452
H           -4.64167166122169       -4.09299209442882        2.31281387913175
H           -3.36395866664213       -2.86970683040773        2.40805811196307
H           -3.02759258426304       -4.44623160934465        1.66991864771733
Cd          -6.05984741010313       -1.98887850407580        0.25468230224361
O           -4.20708284615859       -3.18667277094851        0.52059552903656
H           -3.42820408180944       -2.74031374118837        0.13696171085804
H           -2.09323559137824       -3.53099658040574       -1.55794459085626
O           -7.17852787104063       -2.34204603094839       -1.52684256107062
H           -7.95449511970698       -1.79313386486710       -1.70958985308550
H           -7.49154706234044       -3.25783221185933       -1.56200858614653
O           -6.12603844726087        0.14246071183458       -0.74785272715548
H           -5.64282679669508        0.79300363207157       -0.22167210020370
H           -6.94368541803026        0.57887296328825       -1.02805100608394
O           -6.86656813748516       -4.06949763719330        0.57839409846828
H           -6.21202290008496       -4.70817939696458        0.26127112057906
H           -7.33317939568950       -4.49604266731172        1.30827399725915
O           -7.51425008152626       -1.24055117267603        1.56948902779721
H           -7.21092424221317       -0.92821314655937        2.43374713804549
H           -8.40907076743534       -1.59221144508539        1.69169963655034
O           -4.63993909745999       -1.63769818228389       -1.85981696283851
H           -5.10356471883673       -0.74576197806495       -1.79306858792673
H           -4.76103722591793       -1.99038082614607       -2.76796880520043
