43
 energy: -73.403067945948 gnorm: 0.000341103753 xtb: 6.7.1 (edcfbbe)
C            0.14857251991688       -0.69092638321142       -0.64459161820108
C           -0.76710731737943        0.26767445525789       -1.07406943908174
C           -2.10268948901700        0.13363184139824       -0.75077611884397
C           -2.54297272122253       -0.96090944512672       -0.00575114322248
C           -1.62181320873255       -1.91446596059014        0.43101776884642
C           -0.28555669003270       -1.78079132687609        0.10562928829851
H           -0.43247874618448        1.10152032425824       -1.67098846373341
H           -2.81440421700687        0.87268094859492       -1.08003694980119
H           -1.91287306174695       -2.75108380219049        1.04618205849258
H            0.43637946385933       -2.51638286651741        0.42457400188495
C            1.57988291197538       -0.63776790599214       -1.07236017603837
O            2.06396504300777       -1.55276176692960       -1.71124428541120
O            2.32659813288889        0.41312339370702       -0.77788510650955
C            1.88466078002392        1.46435758226662        0.09727207614073
C            3.04192700113014        1.84440943385784        1.00684588163559
H            1.02547419314101        1.12944611032809        0.68323891705958
H            1.60111334956449        2.31411075591764       -0.52976927005774
H            2.74801787547909        2.67577900748579        1.63914699344819
H            3.32729298160552        1.00246246822173        1.63156870536770
H            3.90232533502341        2.13665095147903        0.41182221300245
C           -3.98972246688027       -1.06088870918019        0.30208444291367
O           -4.72924134439763       -0.09106012417167        0.26110213882869
O           -4.50131327019003       -2.22377445758251        0.63881802793534
H           -3.89299481424723       -2.98080802538200        0.56613017378512
Cd          -6.98079559495636       -0.83832812766877        0.59999589505763
O           -6.15130773677242       -0.92964810322006        2.72969923083687
H           -5.41242393575159       -0.41704202374787        3.08150070938358
H           -5.97143223645811       -1.85553907970532        2.94721457497326
O           -8.80543723414585       -0.63103534803144       -0.79213376654479
H           -8.98591224148876        0.28496106582727       -1.04413630788767
H           -9.64251943897399       -0.98659654281987       -0.46454312671896
O           -7.16658382310981        1.36034415994337        0.57412564758654
H           -6.36750682808431        1.74937147397027        0.19217578408602
H           -7.32763578870906        1.84534676303997        1.39609423542814
O           -7.35638329082337       -2.93662970714738        0.93451680212057
H           -7.18395002656595       -3.55981952424748        0.21536541030981
H           -8.25002759924867       -3.12609296938478        1.25607224185482
O           -8.83522241390314       -0.73957616918334        2.02941364659958
H           -8.56984595811655       -0.84641355099663        2.95246838860995
H           -9.45774880447870       -0.00203770401726        2.01697290914492
O           -6.35485020177473       -1.56645183970753       -1.52667674351067
H           -5.98736478297555       -0.88643865570445       -2.10475278534983
H           -7.10403766425838       -1.93400994623004       -2.01843761274572
