43
 energy: -73.418188350201 gnorm: 0.001756561864 xtb: 6.7.1 (edcfbbe)
C            1.44427972105097       -0.36252963280139       -0.00279142220542
C            0.13507568594624        0.09430237001573        0.14627559547053
C           -0.91405858837777       -0.79903568101827        0.07433903470100
C           -0.66779451285188       -2.15191397001316       -0.15690632941814
C            0.63933551630949       -2.60693445267106       -0.31885104777381
C            1.68983131650968       -1.71539756144211       -0.23825673032951
H           -0.05417657199141        1.14027529470175        0.32763042587258
H           -1.93626582694963       -0.47380484707737        0.19420969203557
H            0.81299567724891       -3.65414828581129       -0.50369568858906
H            2.69904944854250       -2.06663328434762       -0.37811030045905
C            2.58095462947689        0.58464485260412        0.09816509401830
O            3.72120728956372        0.23415393053221        0.36775125969065
O            2.23697929954505        1.83266458395552       -0.12649183819347
C            3.26628056680187        2.83927456335100       -0.08256054364165
C            4.17076473761167        2.76749345119726       -1.30417123323074
H            3.83413904225513        2.71396990641007        0.84288229882616
H            2.71965458468232        3.78198915837143       -0.04881060617017
H            4.88820958202725        3.58005435781830       -1.25938237120803
H            4.69308431589506        1.81509257922536       -1.33512296519125
H            3.57859118932054        2.87885173587292       -2.20888347355541
C           -1.81799039256910       -3.08295663646636       -0.22606964802219
O           -2.97134424920478       -2.74791457254441       -0.03078400363974
O           -1.47588349145170       -4.32664080052542       -0.52469573917547
H           -2.24253000808514       -4.92807195061940       -0.56936195380074
Cd           6.71124359508634       -1.41072030123284       -0.44495855223623
O            8.62133525093214       -0.68206958442272       -1.21692475036638
H            9.13673287557714       -1.13316845313522       -1.90071504281260
H            9.25831245115339       -0.44930266198964       -0.52636796401063
O            4.97221708788353       -2.21960822428985        0.41943232673341
H            4.43134652234875       -1.41251598642404        0.53581998863355
H            5.02428013465188       -2.62005107371372        1.29897909625194
O            5.79726607935476       -0.27488084364763       -2.02975384408689
H            6.44661946229853        0.20215774482618       -2.56847017074271
H            5.28712108152935       -0.81198807078135       -2.65281024888412
O            7.90206631249513       -2.44329474223924        1.09487475501201
H            8.04779556012130       -2.07285726552086        1.97594853744858
H            8.27044843544483       -3.33674933731930        1.10246126291626
O            6.55687157198326        0.26286905476168        0.84341172160791
H            7.02157257459127        1.08885760133684        0.65382408449001
H            5.61351466750372        0.49569778012319        0.87225685554604
O            6.62915975440151       -3.14369625324144       -1.80203768999763
H            7.24922870754980       -3.60047175609558       -2.38663040823076
H            5.94614312382078       -3.78976541580505       -1.57470115326623
