49
 energy: -79.733790505387 gnorm: 0.000573030862 xtb: 6.7.1 (edcfbbe)
C            2.73215939689485        0.37613758119589       -0.57613515596890
C            1.92996890570253        0.65218330805216       -1.68074719767322
C            0.62459178153890        0.20155923773783       -1.70422499562887
C            0.11326360219071       -0.52257520518783       -0.62910908103815
C            0.92226840639938       -0.80733300174705        0.46842136419058
C            2.23063363661369       -0.36331395607328        0.49117065871426
H            2.31969863954166        1.20564472275339       -2.52133358602244
H           -0.02193828618304        0.40241668163543       -2.54457269127907
H            0.51821376118685       -1.37282921214694        1.29177390701901
H            2.85387746214409       -0.58203524705775        1.34360217336392
C            4.14856412457249        0.84388623792346       -0.54466205605561
O            5.08455561257641        0.07691956164295       -0.70809366960701
O            4.42850708940620        2.11112969667659       -0.34717411521365
C            3.43562221749899        3.09675765675094       -0.04035925985614
C            3.09855933097724        3.08260854464434        1.44305654911732
H            2.53877133102357        2.93834408012999       -0.64230275748722
H            3.90168543410490        4.04218070800665       -0.32008845952417
H            2.43848861854355        3.91506376179603        1.66523528397605
H            2.59146181778685        2.16090383403296        1.71828307745057
H            4.00049398674466        3.18740188313236        2.03907411407298
C           -1.29874412463095       -0.97143754318016       -0.68939864924105
O           -2.03858778122798       -0.73743020419170       -1.62719503803732
O           -1.66136504354928       -1.66105099753329        0.38702238750828
C           -3.01371244522598       -2.12985797832989        0.47098506914850
C           -3.92102472095392       -1.07270203520479        1.08226755752663
H           -2.96124456335767       -3.01824387340679        1.10126965634869
H           -3.35748122359948       -2.39729020652272       -0.53303615393976
H           -4.92110929155677       -1.47878421788825        1.19416982733843
H           -3.54680027327158       -0.77278471428480        2.05742592674990
H           -3.96869145467763       -0.19938705676818        0.43510864290408
Cd           8.53217198393841       -0.52260908490905       -0.92889097778989
O            9.42095280685291       -2.28743549824382       -1.81093774897508
H           10.30430428940389       -2.41702637578830       -2.18164880578006
H            9.10635399185042       -3.15655134618186       -1.52639249514270
O            7.63294879487657        1.19215363576724       -0.08243412791058
H            7.79675619849309        2.06127668738300       -0.47595544407095
H            6.67297295723969        1.04504518094327       -0.16870704249320
O            9.99139179678532        0.72331607207971       -1.93409172266934
H           10.86878153938009        1.02784655747155       -1.66615260200285
H            9.88142909025564        0.96622899792117       -2.86346845955260
O            7.12905000748333       -1.83526866880139       -0.02517848707103
H            7.18276382556165       -1.97683170585344        0.93035150619627
H            6.22147823640749       -1.54000561872565       -0.20193727378102
O            9.72971467302252       -0.64641544274026        0.88003820541267
H           10.47630963017907       -1.20155545108073        1.14190864560956
H            9.68293243735136        0.08016604601342        1.51667124586086
O            7.25181964509426       -0.36091627372560       -2.62077422598758
H            7.25258279623186       -1.07455212292874       -3.27437537159526
H            6.33509395235631       -0.28294763513923       -2.31238135709042
