      -----------------------------------------------------------      
     |                   =====================                   |     
     |                           x T B                           |     
     |                   =====================                   |     
     |                         S. Grimme                         |     
     |          Mulliken Center for Theoretical Chemistry        |     
     |                    University of Bonn                     |     
      -----------------------------------------------------------      

   * xtb version 6.7.1 (edcfbbe) compiled by 'conda@c0858423619e' on 2025-09-04

   xtb is free software: you can redistribute it and/or modify it under
   the terms of the GNU Lesser General Public License as published by
   the Free Software Foundation, either version 3 of the License, or
   (at your option) any later version.
   
   xtb is distributed in the hope that it will be useful,
   but WITHOUT ANY WARRANTY; without even the implied warranty of
   MERCHANTABILITY or FITNESS FOR A PARTICULAR PURPOSE.  See the
   GNU Lesser General Public License for more details.
   
   Cite this work as:
   * C. Bannwarth, E. Caldeweyher, S. Ehlert, A. Hansen, P. Pracht,
     J. Seibert, S. Spicher, S. Grimme, WIREs Comput. Mol. Sci., 2020, 11,
     e01493. DOI: 10.1002/wcms.1493
   
   for GFN2-xTB:
   * C. Bannwarth, S. Ehlert and S. Grimme., J. Chem. Theory Comput., 2019,
     15, 1652-1671. DOI: 10.1021/acs.jctc.8b01176
   for GFN1-xTB:
   * S. Grimme, C. Bannwarth, P. Shushkov, J. Chem. Theory Comput., 2017,
     13, 1989-2009. DOI: 10.1021/acs.jctc.7b00118
   for GFN0-xTB:
   * P. Pracht, E. Caldeweyher, S. Ehlert, S. Grimme, ChemRxiv, 2019, preprint.
     DOI: 10.26434/chemrxiv.8326202.v1
   for GFN-FF:
   * S. Spicher and S. Grimme, Angew. Chem. Int. Ed., 2020, 59, 15665-15673.
     DOI: 10.1002/anie.202004239
   
   for ALPB and GBSA implicit solvation:
   * S. Ehlert, M. Stahn, S. Spicher, S. Grimme, J. Chem. Theory Comput.,
     2021, 17, 4250-4261. DOI: 10.1021/acs.jctc.1c00471
   
   for ddCOSMO and CPCM-X implicit solvation:
   * M. Stahn, S. Ehlert, S. Grimme, J. Phys. Chem. A,
     2023, XX, XXXX-XXXX. DOI: 10.1021/acs.jpca.3c04382
   
   for DFT-D4:
   * E. Caldeweyher, C. Bannwarth and S. Grimme, J. Chem. Phys., 2017,
     147, 034112. DOI: 10.1063/1.4993215
   * E. Caldeweyher, S. Ehlert, A. Hansen, H. Neugebauer, S. Spicher,
     C. Bannwarth and S. Grimme, J. Chem. Phys., 2019, 150, 154122.
     DOI: 10.1063/1.5090222
   * E. Caldeweyher, J.-M. Mewes, S. Ehlert and S. Grimme, Phys. Chem. Chem. Phys.
     2020, 22, 8499-8512. DOI: 10.1039/D0CP00502A
   
   for sTDA-xTB:
   * S. Grimme and C. Bannwarth, J. Chem. Phys., 2016, 145, 054103.
     DOI: 10.1063/1.4959605
   
   in the mass-spec context:
   * V. Asgeirsson, C. Bauer and S. Grimme, Chem. Sci., 2017, 8, 4879.
     DOI: 10.1039/c7sc00601b
   * J. Koopman and S. Grimme, ACS Omega 2019, 4, 12, 15120-15133.
     DOI: 10.1021/acsomega.9b02011
   
   for metadynamics refer to:
   * S. Grimme, J. Chem. Theory Comput., 2019, 155, 2847-2862
     DOI: 10.1021/acs.jctc.9b00143
   
   for SPH calculations refer to:
   * S. Spicher and S. Grimme, J. Chem. Theory Comput., 2021, 17, 1701-1714
     DOI: 10.1021/acs.jctc.0c01306
   
   for ONIOM refer to:
   * C. Plett, A. Katbashev, S. Ehlert, S. Grimme, M. Bursch,
     Phys. Chem. Chem. Phys., 2023, 25, 17860-17868. DOI: 10.1039/D3CP02178E
   
   for DIPRO refer to:
   * J. Kohn, N. Gildemeister, S. Grimme, D. Fazzi, A. Hansen,
     J. Chem. Phys., 2023, just accepted.
   
   for PTB refer to:
   * S. Grimme, M. Mueller, A. Hansen, J. Chem. Phys., 2023, 158, 124111.
     DOI: 10.1063/5.0137838
   
   with help from (in alphabetical order)
   P. Atkinson, C. Bannwarth, F. Bohle, G. Brandenburg, E. Caldeweyher
   M. Checinski, S. Dohm, S. Ehlert, S. Ehrlich, I. Gerasimov, C. Hölzer
   A. Katbashev, J. Kohn, J. Koopman, C. Lavigne, S. Lehtola, F. März, M. Müller,
   F. Musil, H. Neugebauer, J. Pisarek, C. Plett, P. Pracht, F. Pultar,
   J. Seibert, P. Shushkov, S. Spicher, M. Stahn, M. Steiner, T. Strunk,
   J. Stückrath, T. Rose, and J. Unsleber
   
 * started run on 2026/05/26 at 02:13:13.213     
   ID    Z sym.   atoms
    1    6 C      1-9
    2    8 O      10, 11, 31, 34, 37, 40, 43, 46
    3    1 H      12-29, 32, 33, 35, 36, 38, 39, 41, 42, 44, 45, 47, 48
    4   48 Cd     30

           -------------------------------------------------
          |                Calculation Setup                |
           -------------------------------------------------

          program call               : /content/xtb_env/bin/xtb input.xyz --gfn 2 --opt tight --alpb water --chrg 2 --uhf 0
          hostname                   : 01035569fb61
          coordinate file            : input.xyz
          omp threads                :                     2


molecular fragmentation (1/2 indicates fragments):
111111111111111111111111111111111111111111222222
# atoms in fragment 1/2:    42     6
 fragment masses (1/2) :      342.71       36.03
CMA distance (Bohr)    :   7.683
constraining FC (au)   :  0.0500

           -------------------------------------------------
          |                 G F N 2 - x T B                 |
           -------------------------------------------------

        Reference                      10.1021/acs.jctc.8b01176
      * Hamiltonian:
        H0-scaling (s, p, d)           1.850000    2.230000    2.230000
        zeta-weighting                 0.500000
      * Dispersion:
        s8                             2.700000
        a1                             0.520000
        a2                             5.000000
        s9                             5.000000
      * Repulsion:
        kExp                           1.500000    1.000000
        rExp                           1.000000
      * Coulomb:
        alpha                          2.000000
        third order                    shell-resolved
        anisotropic                    true
        a3                             3.000000
        a5                             4.000000
        cn-shift                       1.200000
        cn-exp                         4.000000
        max-rad                        5.000000

      * Solvation model:               ALPB
        Solvent                        water
        Parameter file                 internal GFN2-xTB/ALPB
        Dielectric constant                8.0200E+01
        Reference state                gsolv [1 M gas/solution]
        Free energy shift                  1.0808E-03 Eh       6.7819E-01 kcal/mol
        Temperature                        2.9815E+02 K
        Density                            1.0000E+00 kg/L
        Solvent mass                       1.8000E+01 g/mol
        Interaction kernel             P16
        Born radius scaling (c1)           1.4744E+00
        Born radii integrator          GBOBC
        Born offset                        0.0000E+00 a0       0.0000E+00 AA
        H-bond correction              true
        Ion screening                  false
        Surface tension                    1.0000E-05 Eh       1.5569E+01 dyn/cm
        Grid points                               230 per atom

          ...................................................
          :                      SETUP                      :
          :.................................................:
          :  # basis functions                 102          :
          :  # atomic orbitals                 102          :
          :  # shells                           66          :
          :  # electrons                       114          :
          :  max. iterations                   250          :
          :  Hamiltonian                  GFN2-xTB          :
          :  restarted?                      false          :
          :  GBSA solvation                   true          :
          :  PC potential                    false          :
          :  electronic temp.          300.0000000     K    :
          :  accuracy                    1.0000000          :
          :  -> integral cutoff          0.2500000E+02      :
          :  -> integral neglect         0.1000000E-07      :
          :  -> SCF convergence          0.1000000E-05 Eh   :
          :  -> wf. convergence          0.1000000E-03 e    :
          :  Broyden damping             0.4000000          :
          :  net charge                          2          :
          :  unpaired electrons                  0          :
          ...................................................

 iter      E             dE          RMSdq      gap      omega  full diag
   1    -62.7481700 -0.627482E+02  0.695E+00    0.04       0.0  T
   2    -64.1282571 -0.138009E+01  0.462E+00    0.85       1.0  T
   3    -63.9879757  0.140281E+00  0.338E+00    0.58       1.0  T
   4    -64.2851115 -0.297136E+00  0.256E+00    1.10       1.0  T
   5    -64.3484146 -0.633030E-01  0.153E+00    0.79       1.0  T
   6    -64.3926307 -0.442161E-01  0.967E-01    0.70       1.0  T
   7    -64.2346954  0.157935E+00  0.146E+00    0.26       1.0  T
   8    -64.4084333 -0.173738E+00  0.671E-01    0.50       1.0  T
   9    -64.4156331 -0.719986E-02  0.538E-01    0.39       1.0  T
  10    -64.4344911 -0.188580E-01  0.138E-01    0.25       1.0  T
  11    -64.4352014 -0.710273E-03  0.851E-02    0.24       1.0  T
  12    -64.4271322  0.806917E-02  0.323E-01    0.21       1.0  T
  13    -64.4341972 -0.706499E-02  0.123E-01    0.25       1.0  T
  14    -64.4353437 -0.114651E-02  0.140E-02    0.23       1.0  T
  15    -64.4353115  0.322483E-04  0.246E-02    0.23       1.0  T
  16    -64.4353544 -0.429457E-04  0.776E-03    0.23       1.9  T
  17    -64.4353582 -0.382373E-05  0.179E-03    0.23       8.1  T
  18    -64.4353582  0.213644E-07  0.186E-03    0.23       7.7  T
  19    -64.4353584 -0.211301E-06  0.869E-04    0.23      16.6  T
  20    -64.4353585 -0.460459E-07  0.396E-04    0.23      36.5  T

   *** convergence criteria satisfied after 20 iterations ***

         #    Occupation            Energy/Eh            Energy/eV
      -------------------------------------------------------------
         1        2.0000           -1.4037247             -38.1973
       ...           ...                  ...                  ...
        51        2.0000           -0.3167699              -8.6197
        52        2.0000           -0.2953465              -8.0368
        53        2.0000           -0.2647007              -7.2029
        54        2.0000           -0.2329303              -6.3384
        55        2.0000           -0.2039634              -5.5501
        56        2.0000           -0.1979696              -5.3870
        57        1.9763           -0.1770121              -4.8167 (HOMO)
        58        0.0237           -0.1686080              -4.5881 (LUMO)
        59                         -0.1516698              -4.1271
        60                         -0.1151422              -3.1332
        61                         -0.0740020              -2.0137
        62                         -0.0696604              -1.8956
       ...                                ...                  ...
       102                         78.4111840            2133.6769
      -------------------------------------------------------------
                  HL-Gap            0.0084041 Eh            0.2287 eV
             Fermi-level           -0.1728101 Eh           -4.7024 eV

 SCC (total)                   0 d,  0 h,  0 min,  3.045 sec
 SCC setup                      ...        0 min,  0.009 sec (  0.290%)
 Dispersion                     ...        0 min,  0.001 sec (  0.028%)
 classical contributions        ...        0 min,  0.000 sec (  0.007%)
 integral evaluation            ...        0 min,  0.022 sec (  0.725%)
 iterations                     ...        0 min,  2.866 sec ( 94.138%)
 molecular gradient             ...        0 min,  0.134 sec (  4.412%)
 printout                       ...        0 min,  0.012 sec (  0.400%)

         :::::::::::::::::::::::::::::::::::::::::::::::::::::
         ::                     SUMMARY                     ::
         :::::::::::::::::::::::::::::::::::::::::::::::::::::
         :: total energy             -56.697529898139 Eh    ::
         :: total w/o Gsasa/hb       -56.625458011188 Eh    ::
         :: gradient norm             42.044071820182 Eh/a0 ::
         :: HOMO-LUMO gap              0.228686555512 eV    ::
         ::.................................................::
         :: SCC energy               -64.435608793040 Eh    ::
         :: -> isotropic ES            2.373875178557 Eh    ::
         :: -> anisotropic ES          0.036274885852 Eh    ::
         :: -> anisotropic XC          0.014617236709 Eh    ::
         :: -> dispersion             -0.029899205581 Eh    ::
         :: -> Gsolv                  -1.429959549682 Eh    ::
         ::    -> Gelec               -1.357887662731 Eh    ::
         ::    -> Gsasa               -0.001321937487 Eh    ::
         ::    -> Ghb                 -0.071830709163 Eh    ::
         ::    -> Gshift               0.001080759698 Eh    ::
         :: repulsion energy           7.738078894901 Eh    ::
         :: add. restraining           0.000000000000 Eh    ::
         :: total charge               1.999999999573 e     ::
         :::::::::::::::::::::::::::::::::::::::::::::::::::::

      ----------------------------------------------------------- 
     |                   =====================                   |
     |                        A N C O P T                        |
     |                   =====================                   |
     |               Approximate Normal Coordinate               |
     |                Rational Function Optimizer                |
      ----------------------------------------------------------- 
      ----------------------------------------------------------- 
     |                   =====================                   |
     |                        A N C O P T                        |
     |                   =====================                   |
     |               Approximate Normal Coordinate               |
     |                Rational Function Optimizer                |
      ----------------------------------------------------------- 

          ...................................................
          :                      SETUP                      :
          :.................................................:
          :   optimization level             tight          :
          :   max. optcycles                   240          :
          :   ANC micro-cycles                  20          :
          :   degrees of freedom               138          :
          :.................................................:
          :   RF solver                   davidson          :
          :   write xtbopt.log                true          :
          :   linear?                        false          :
          :   energy convergence         0.1000000E-05 Eh   :
          :   grad. convergence          0.8000000E-03 Eh/α :
          :   maxmium RF displ.          1.0000000          :
          :   Hlow (freq-cutoff)         0.1000000E-01      :
          :   Hmax (freq-cutoff)         5.0000000          :
          :   S6 in model hess.         20.0000000          :
          ...................................................

generating ANC from exact Hessian ...
Using Lindh-Hessian (1995)
 Shifting diagonal of input Hessian by    1.0144733971581549E-002
 Lowest  eigenvalues of input Hessian
    0.010000    0.010052    0.010076    0.010084    0.000000    0.000000
    0.000000    0.000000    0.000000    0.000000    0.010178    0.010207
    0.010270    0.010287    0.010294    0.010335    0.010431    0.010514
 Highest eigenvalues
    3.259972    3.768053    5.757806    6.225428   12.983299   41.484920


........................................................................
.............................. CYCLE    1 ..............................
........................................................................

 iter      E             dE          RMSdq      gap      omega  full diag
   1    -64.4353585 -0.644354E+02  0.165E-05    0.23       0.0  T
   2    -64.4353585  0.897657E-09  0.101E-04    0.23     143.0  T
   3    -64.4353585 -0.896705E-09  0.138E-05    0.23    1043.0  T
     SCC iter.                  ...        0 min,  0.529 sec
     gradient                   ...        0 min,  0.077 sec
 * total energy  :   -56.6975299 Eh     change       -0.1162419E-07 Eh
   gradient norm :    42.0440489 Eh/α   predicted     0.0000000E+00 (-100.00%)
   displ. norm   :     0.9426143 α      lambda       -0.3959313E+02
   maximum displ.:     0.7996357 α      in ANC's #138, #136, #131, ...

........................................................................
.............................. CYCLE    2 ..............................
........................................................................

 iter      E             dE          RMSdq      gap      omega  full diag
   1    -64.8873822 -0.648874E+02  0.557E+00    0.31       0.0  T
   2    -65.6637732 -0.776391E+00  0.239E+00    0.21       1.0  T
   3    -65.6345509  0.292223E-01  0.184E+00    0.39       1.0  T
   4    -65.6553625 -0.208117E-01  0.136E+00    0.86       1.0  T
   5    -65.6495629  0.579967E-02  0.118E+00    0.07       1.0  T
   6    -65.7041719 -0.546090E-01  0.825E-01    0.71       1.0  T
   7    -65.7451637 -0.409918E-01  0.370E-01    0.42       1.0  T
   8    -65.7552492 -0.100855E-01  0.203E-01    0.29       1.0  T
   9    -65.7555835 -0.334325E-03  0.120E-01    0.29       1.0  T
  10    -65.7548299  0.753679E-03  0.126E-01    0.24       1.0  T
  11    -65.7558168 -0.986922E-03  0.320E-02    0.26       1.0  T
  12    -65.7558377 -0.208828E-04  0.224E-02    0.26       1.0  T
  13    -65.7558455 -0.784324E-05  0.112E-02    0.26       1.3  T
  14    -65.7558510 -0.550937E-05  0.237E-03    0.26       6.1  T
  15    -65.7558507  0.368355E-06  0.287E-03    0.26       5.0  T
  16    -65.7558512 -0.586430E-06  0.651E-04    0.26      22.2  T
  17    -65.7558512 -0.347629E-08  0.383E-04    0.26      37.7  T
     SCC iter.                  ...        0 min,  0.465 sec
     gradient                   ...        0 min,  0.103 sec
 * total energy  :   -64.3610036 Eh     change       -0.7663474E+01 Eh
   gradient norm :     2.8611475 Eh/α   predicted    -0.3742165E+02 ( 388.31%)
   displ. norm   :     0.6634586 α      lambda       -0.1749018E+01
   maximum displ.:     0.3985626 α      in ANC's #132, #129, #130, ...

........................................................................
.............................. CYCLE    3 ..............................
........................................................................

 iter      E             dE          RMSdq      gap      omega  full diag
   1    -65.5704818 -0.655705E+02  0.336E+00    0.23       0.0  T
   2    -65.5825084 -0.120266E-01  0.290E+00    0.29       1.0  T
   3    -65.7311763 -0.148668E+00  0.192E+00    0.40       1.0  T
   4    -65.8554224 -0.124246E+00  0.149E+00    0.65       1.0  T
   5    -65.9188826 -0.634602E-01  0.828E-01    0.25       1.0  T
   6    -65.9276115 -0.872896E-02  0.393E-01    0.06       1.0  T
   7    -65.9306693 -0.305779E-02  0.195E-01    0.09       1.0  T
   8    -65.9308833 -0.214017E-03  0.162E-01    0.09       1.0  T
   9    -65.9316689 -0.785547E-03  0.156E-01    0.12       1.0  T
  10    -65.9322059 -0.537001E-03  0.764E-02    0.09       1.0  T
  11    -65.9322483 -0.424568E-04  0.680E-02    0.11       1.0  T
  12    -65.9323778 -0.129473E-03  0.149E-02    0.10       1.0  T
  13    -65.9323762  0.166147E-05  0.201E-02    0.10       1.0  T
  14    -65.9323906 -0.144204E-04  0.146E-03    0.10       9.9  T
  15    -65.9323905  0.544087E-07  0.190E-03    0.10       7.6  T
  16    -65.9323906 -0.896526E-07  0.779E-04    0.10      18.5  T
  17    -65.9323906 -0.749716E-08  0.626E-04    0.10      23.1  T
     SCC iter.                  ...        0 min,  0.947 sec
     gradient                   ...        0 min,  0.089 sec
 * total energy  :   -65.1884076 Eh     change       -0.8274040E+00 Eh
   gradient norm :     0.7729742 Eh/α   predicted    -0.1259448E+01 (  52.22%)
   displ. norm   :     0.6988373 α      lambda       -0.3700080E+00
   maximum displ.:     0.4059548 α      in ANC's #53, #56, #99, ...

........................................................................
.............................. CYCLE    4 ..............................
........................................................................

 iter      E             dE          RMSdq      gap      omega  full diag
   1    -65.9832202 -0.659832E+02  0.273E+00    0.55       0.0  T
   2    -65.6946337  0.288586E+00  0.300E+00    0.48       1.0  T
   3    -66.0446282 -0.349994E+00  0.199E+00    0.79       1.0  T
   4    -66.1480740 -0.103446E+00  0.125E+00    0.33       1.0  T
   5    -66.1889473 -0.408734E-01  0.868E-01    0.15       1.0  T
   6    -66.1987366 -0.978928E-02  0.415E-01    0.05       1.0  T
   7    -66.1249866  0.737500E-01  0.167E+00    0.06       1.0  T
   8    -66.2034125 -0.784259E-01  0.348E-01    0.09       1.0  T
   9    -66.2068472 -0.343477E-02  0.836E-02    0.05       1.0  T
  10    -66.2066538  0.193429E-03  0.105E-01    0.05       1.0  T
  11    -66.2062718  0.381995E-03  0.159E-01    0.07       1.0  T
  12    -66.2070385 -0.766654E-03  0.105E-02    0.06       1.4  T
  13    -66.2070411 -0.263288E-05  0.341E-03    0.06       4.2  T
  14    -66.2070417 -0.590062E-06  0.262E-03    0.06       5.5  T
  15    -66.2070413  0.355457E-06  0.390E-03    0.06       3.7  T
  16    -66.2070419 -0.526734E-06  0.809E-04    0.06      17.8  T
  17    -66.2070419 -0.147555E-07  0.451E-04    0.06      32.0  T
     SCC iter.                  ...        0 min,  0.192 sec
     gradient                   ...        0 min,  0.052 sec
 * total energy  :   -65.5128505 Eh     change       -0.3244429E+00 Eh
   gradient norm :     0.5971656 Eh/α   predicted    -0.2753600E+00 ( -15.13%)
   displ. norm   :     0.7960845 α      lambda       -0.3536887E+00
   maximum displ.:     0.4252084 α      in ANC's #53, #56, #129, ...

........................................................................
.............................. CYCLE    5 ..............................
........................................................................

 iter      E             dE          RMSdq      gap      omega  full diag
   1    -66.2986946 -0.662987E+02  0.242E+00    0.67       0.0  T
   2    -65.9234806  0.375214E+00  0.311E+00    0.44       1.0  T
   3    -66.3069612 -0.383481E+00  0.213E+00    0.46       1.0  T
   4    -66.4376059 -0.130645E+00  0.117E+00    0.12       1.0  T
   5    -66.4596270 -0.220211E-01  0.673E-01    0.02       1.0  T
   6    -66.4432430  0.163840E-01  0.938E-01    0.11       1.0  T
   7    -66.4532040 -0.996098E-02  0.826E-01    0.02       1.0  T
   8    -66.4716633 -0.184594E-01  0.212E-01    0.01       1.0  T
   9    -66.4730648 -0.140146E-02  0.680E-02    0.03       1.0  T
  10    -66.4731964 -0.131626E-03  0.794E-03    0.03       1.8  T
  11    -66.4731967 -0.311746E-06  0.487E-03    0.02       3.0  T
  12    -66.4731938  0.287892E-05  0.107E-02    0.03       1.3  T
  13    -66.4731972 -0.338910E-05  0.386E-03    0.02       3.7  T
  14    -66.4731974 -0.176833E-06  0.296E-03    0.03       4.9  T
  15    -66.4731977 -0.259040E-06  0.399E-04    0.03      36.2  T
  16    -66.4731977 -0.132077E-08  0.314E-04    0.03      46.0  T
     SCC iter.                  ...        0 min,  0.127 sec
     gradient                   ...        0 min,  0.054 sec
 * total energy  :   -65.8166115 Eh     change       -0.3037610E+00 Eh
   gradient norm :     0.4590599 Eh/α   predicted    -0.2889194E+00 (  -4.89%)
   displ. norm   :     0.8355268 α      lambda       -0.2748437E+00
   maximum displ.:     0.4986131 α      in ANC's #53, #56, #129, ...

........................................................................
.............................. CYCLE    6 ..............................
........................................................................

 iter      E             dE          RMSdq      gap      omega  full diag
   1    -66.5513084 -0.665513E+02  0.208E+00    0.54       0.0  T
   2    -66.1489309  0.402377E+00  0.315E+00    0.29       1.0  T
   3    -66.5148858 -0.365955E+00  0.223E+00    0.29       1.0  T
   4    -66.6642108 -0.149325E+00  0.824E-01    0.04       1.0  T
   5    -66.6773167 -0.131059E-01  0.298E-01    0.02       1.0  T
   6    -66.6486848  0.286319E-01  0.107E+00    0.06       1.0  T
   7    -66.6758751 -0.271903E-01  0.347E-01    0.01       1.0  T
   8    -66.6753892  0.485862E-03  0.350E-01    0.02       1.0  T
   9    -66.6783285 -0.293934E-02  0.155E-01    0.01       1.0  T
  10    -66.6789424 -0.613863E-03  0.363E-02    0.01       1.0  T
  11    -66.6789786 -0.361796E-04  0.113E-02    0.01       1.3  T
  12    -66.6789818 -0.320507E-05  0.236E-03    0.01       6.1  T
  13    -66.6789811  0.633584E-06  0.523E-03    0.00       2.8  T
  14    -66.6789817 -0.576394E-06  0.274E-03    0.01       5.3  T
  15    -66.6789819 -0.134276E-06  0.165E-03    0.01       8.7  T
  16    -66.6789819 -0.763461E-07  0.529E-04    0.01      27.3  T
  17    -66.6789819 -0.251912E-08  0.416E-04    0.01      34.7  T
     SCC iter.                  ...        0 min,  0.194 sec
     gradient                   ...        0 min,  0.049 sec
 * total energy  :   -66.0599728 Eh     change       -0.2433613E+00 Eh
   gradient norm :     0.3682775 Eh/α   predicted    -0.2333567E+00 (  -4.11%)
   displ. norm   :     0.8461348 α      lambda       -0.2257845E+00
   maximum displ.:     0.5115421 α      in ANC's #53, #56, #129, ...

........................................................................
.............................. CYCLE    7 ..............................
........................................................................

 iter      E             dE          RMSdq      gap      omega  full diag
   1    -66.7516796 -0.667517E+02  0.183E+00    0.35       0.0  T
   2    -66.4166166  0.335063E+00  0.330E+00    0.33       1.0  T
   3    -66.7101954 -0.293579E+00  0.210E+00    0.27       1.0  T
   4    -66.7598363 -0.496409E-01  0.178E+00    0.12       1.0  T
   5    -66.8256473 -0.658110E-01  0.101E+00    0.05       1.0  T
   6    -66.8086790  0.169683E-01  0.129E+00    0.10       1.0  T
   7    -66.8503714 -0.416924E-01  0.317E-01    0.01       1.0  T
   8    -66.8532789 -0.290752E-02  0.338E-02    0.00       1.0  T
   9    -66.8530935  0.185350E-03  0.914E-02    0.00       1.0  T
  10    -66.8532888 -0.195315E-03  0.403E-02    0.00       1.0  T
  11    -66.8533336 -0.447877E-04  0.556E-03    0.00       2.6  T
  12    -66.8533305  0.312842E-05  0.119E-02    0.00       1.2  T
  13    -66.8533343 -0.380354E-05  0.260E-03    0.00       5.6  T
  14    -66.8533344 -0.121648E-06  0.148E-03    0.00       9.8  T
  15    -66.8533344  0.218092E-07  0.174E-03    0.00       8.3  T
  16    -66.8533345 -0.847528E-07  0.793E-05    0.00     182.0  T
  17    -66.8533345  0.387203E-09  0.143E-04    0.00     101.0  T
     SCC iter.                  ...        0 min,  0.318 sec
     gradient                   ...        0 min,  0.051 sec
 * total energy  :   -66.2577486 Eh     change       -0.1977758E+00 Eh
   gradient norm :     0.2771018 Eh/α   predicted    -0.1937168E+00 (  -2.05%)
   displ. norm   :     0.8348139 α      lambda       -0.1738254E+00
   maximum displ.:     0.5104415 α      in ANC's #53, #56, #129, ...

........................................................................
.............................. CYCLE    8 ..............................
........................................................................

 iter      E             dE          RMSdq      gap      omega  full diag
   1    -66.9279637 -0.669280E+02  0.148E+00    0.12       0.0  T
   2    -66.5611146  0.366849E+00  0.329E+00    0.76       1.0  T
   3    -66.8604404 -0.299326E+00  0.220E+00    0.27       1.0  T
   4    -66.8807219 -0.202815E-01  0.197E+00    0.17       1.0  T
   5    -66.9618136 -0.810917E-01  0.106E+00    0.07       1.0  T
   6    -66.9246609  0.371527E-01  0.161E+00    0.13       1.0  T
   7    -66.9921206 -0.674597E-01  0.429E-01    0.03       1.0  T
   8    -66.9970594 -0.493878E-02  0.118E-01    0.00       1.0  T
   9    -66.9974440 -0.384566E-03  0.342E-02    0.00       1.0  T
  10    -66.9974425  0.147640E-05  0.330E-02    0.00       1.0  T
  11    -66.9974421  0.381845E-06  0.332E-02    0.00       1.0  T
  12    -66.9974736 -0.314376E-04  0.584E-03    0.00       2.5  T
  13    -66.9974736 -0.383671E-07  0.583E-03    0.00       2.5  T
  14    -66.9974736 -0.271740E-07  0.571E-03    0.00       2.5  T
  15    -66.9974744 -0.821228E-06  0.223E-03    0.00       6.5  T
  16    -66.9974746 -0.147634E-06  0.875E-05    0.00     165.0  T
  17    -66.9974746  0.131020E-08  0.232E-04    0.00      62.3  T
     SCC iter.                  ...        0 min,  0.157 sec
     gradient                   ...        0 min,  0.048 sec
 * total energy  :   -66.4076851 Eh     change       -0.1499365E+00 Eh
   gradient norm :     0.1970804 Eh/α   predicted    -0.1474833E+00 (  -1.64%)
   displ. norm   :     0.8108818 α      lambda       -0.1252499E+00
   maximum displ.:     0.4743310 α      in ANC's #53, #56, #129, ...

........................................................................
.............................. CYCLE    9 ..............................
........................................................................

 iter      E             dE          RMSdq      gap      omega  full diag
   1    -67.0996367 -0.670996E+02  0.776E-01    0.03       0.0  T
   2    -66.9363348  0.163302E+00  0.218E+00    0.45       1.0  T
   3    -66.9709968 -0.346620E-01  0.198E+00    0.23       1.0  T
   4    -67.0527475 -0.817507E-01  0.126E+00    0.07       1.0  T
   5    -67.1061295 -0.533820E-01  0.806E-02    0.01       1.0  T
   6    -67.1054845  0.645021E-03  0.175E-01    0.02       1.0  T
   7    -67.1060092 -0.524647E-03  0.107E-01    0.00       1.0  T
   8    -67.1059070  0.102160E-03  0.120E-01    0.00       1.0  T
   9    -67.1063254 -0.418423E-03  0.342E-02    0.01       1.0  T
  10    -67.1063648 -0.394305E-04  0.203E-03    0.01       7.1  T
  11    -67.1063648  0.125042E-07  0.180E-03    0.01       8.0  T
  12    -67.1063649 -0.717679E-07  0.635E-04    0.01      22.7  T
  13    -67.1063649  0.295717E-07  0.115E-03    0.01      12.5  T
  14    -67.1063649 -0.404028E-07  0.117E-04    0.01     123.4  T
     SCC iter.                  ...        0 min,  0.170 sec
     gradient                   ...        0 min,  0.075 sec
 * total energy  :   -66.5128196 Eh     change       -0.1051344E+00 Eh
   gradient norm :     0.1438312 Eh/α   predicted    -0.1038027E+00 (  -1.27%)
   displ. norm   :     0.7845405 α      lambda       -0.8342715E-01
   maximum displ.:     0.4214407 α      in ANC's #53, #33, #29, ...

........................................................................
.............................. CYCLE   10 ..............................
........................................................................

 iter      E             dE          RMSdq      gap      omega  full diag
   1    -67.1506027 -0.671506E+02  0.118E+00    0.08       0.0  T
   2    -66.8878534  0.262749E+00  0.277E+00    0.94       1.0  T
   3    -67.0886053 -0.200752E+00  0.154E+00    0.14       1.0  T
   4    -67.0085964  0.800089E-01  0.227E+00    0.19       1.0  T
   5    -67.1305028 -0.121906E+00  0.115E+00    0.05       1.0  T
   6    -67.1552252 -0.247224E-01  0.839E-01    0.07       1.0  T
   7    -67.1752141 -0.199889E-01  0.355E-01    0.00       1.0  T
   8    -67.1796359 -0.442171E-02  0.511E-02    0.01       1.0  T
   9    -67.1795219  0.113942E-03  0.784E-02    0.01       1.0  T
  10    -67.1796734 -0.151531E-03  0.373E-02    0.02       1.0  T
  11    -67.1797190 -0.455199E-04  0.127E-02    0.02       1.1  T
  12    -67.1797244 -0.547956E-05  0.992E-04    0.02      14.5  T
  13    -67.1797244  0.801693E-07  0.179E-03    0.02       8.1  T
  14    -67.1797245 -0.936185E-07  0.750E-04    0.02      19.3  T
  15    -67.1797245 -0.177201E-07  0.208E-04    0.02      69.5  T
     SCC iter.                  ...        0 min,  0.293 sec
     gradient                   ...        0 min,  0.090 sec
 * total energy  :   -66.5814118 Eh     change       -0.6859220E-01 Eh
   gradient norm :     0.1223451 Eh/α   predicted    -0.6738841E-01 (  -1.75%)
   displ. norm   :     0.7624146 α      lambda       -0.5476121E-01
   maximum displ.:     0.3426483 α      in ANC's #53, #33, #29, ...

........................................................................
.............................. CYCLE   11 ..............................
........................................................................

 iter      E             dE          RMSdq      gap      omega  full diag
   1    -67.2145960 -0.672146E+02  0.842E-01    0.07       0.0  T
   2    -66.9645373  0.250059E+00  0.268E+00    0.64       1.0  T
   3    -67.0894063 -0.124869E+00  0.182E+00    0.24       1.0  T
   4    -67.1613550 -0.719487E-01  0.133E+00    0.05       1.0  T
   5    -67.2187320 -0.573770E-01  0.578E-01    0.06       1.0  T
   6    -67.2243328 -0.560078E-02  0.325E-01    0.04       1.0  T
   7    -67.2258976 -0.156483E-02  0.222E-01    0.01       1.0  T
   8    -67.2277379 -0.184027E-02  0.194E-02    0.02       1.0  T
   9    -67.2276174  0.120520E-03  0.631E-02    0.02       1.0  T
  10    -67.2277216 -0.104223E-03  0.295E-02    0.02       1.0  T
  11    -67.2277503 -0.286771E-04  0.246E-03    0.02       5.9  T
  12    -67.2277505 -0.177326E-06  0.157E-03    0.02       9.2  T
  13    -67.2277505 -0.742446E-07  0.456E-04    0.02      31.6  T
  14    -67.2277505  0.129026E-07  0.777E-04    0.02      18.6  T
     SCC iter.                  ...        0 min,  0.162 sec
     gradient                   ...        0 min,  0.080 sec
 * total energy  :   -66.6270658 Eh     change       -0.4565404E-01 Eh
   gradient norm :     0.1095166 Eh/α   predicted    -0.4329641E-01 (  -5.16%)
   displ. norm   :     0.7761727 α      lambda       -0.4024979E-01
   maximum displ.:     0.3839487 α      in ANC's #33, #29, #53, ...

........................................................................
.............................. CYCLE   12 ..............................
........................................................................

 iter      E             dE          RMSdq      gap      omega  full diag
   1    -67.2573083 -0.672573E+02  0.656E-01    0.06       0.0  T
   2    -66.9851239  0.272184E+00  0.276E+00    0.57       1.0  T
   3    -67.1933782 -0.208254E+00  0.132E+00    0.11       1.0  T
   4    -67.1351962  0.581820E-01  0.184E+00    0.07       1.0  T
   5    -67.2647855 -0.129589E+00  0.171E-01    0.02       1.0  T
   6    -67.2657482 -0.962691E-03  0.139E-01    0.03       1.0  T
   7    -67.2657468  0.146709E-05  0.126E-01    0.02       1.0  T
   8    -67.2660156 -0.268822E-03  0.978E-02    0.03       1.0  T
   9    -67.2660040  0.115592E-04  0.996E-02    0.02       1.0  T
  10    -67.2663771 -0.373118E-03  0.117E-02    0.03       1.2  T
  11    -67.2663809 -0.378399E-05  0.295E-03    0.03       4.9  T
  12    -67.2663811 -0.194548E-06  0.215E-03    0.03       6.7  T
  13    -67.2663813 -0.146603E-06  0.964E-04    0.03      15.0  T
  14    -67.2663813 -0.270543E-07  0.284E-04    0.03      50.8  T
     SCC iter.                  ...        0 min,  0.182 sec
     gradient                   ...        0 min,  0.052 sec
 * total energy  :   -66.6613725 Eh     change       -0.3430674E-01 Eh
   gradient norm :     0.1041088 Eh/α   predicted    -0.3224905E-01 (  -6.00%)
   displ. norm   :     0.7748931 α      lambda       -0.3440708E-01
   maximum displ.:     0.4028329 α      in ANC's #33, #28, #53, ...

........................................................................
.............................. CYCLE   13 ..............................
........................................................................

 iter      E             dE          RMSdq      gap      omega  full diag
   1    -67.2885439 -0.672885E+02  0.789E-01    0.07       0.0  T
   2    -66.9732610  0.315283E+00  0.296E+00    0.71       1.0  T
   3    -67.3040814 -0.330820E+00  0.248E-01    0.02       1.0  T
   4    -67.2112237  0.928578E-01  0.147E+00    0.04       1.0  T
   5    -67.2502761 -0.390525E-01  0.117E+00    0.10       1.0  T
   6    -67.2983709 -0.480948E-01  0.450E-01    0.05       1.0  T
   7    -67.3030248 -0.465397E-02  0.255E-01    0.01       1.0  T
   8    -67.3028644  0.160395E-03  0.272E-01    0.04       1.0  T
   9    -67.3054026 -0.253813E-02  0.937E-02    0.02       1.0  T
  10    -67.3056000 -0.197389E-03  0.623E-02    0.02       1.0  T
  11    -67.3057520 -0.152043E-03  0.618E-03    0.03       2.3  T
  12    -67.3057534 -0.137350E-05  0.194E-03    0.03       7.5  T
  13    -67.3057532  0.218772E-06  0.302E-03    0.03       4.8  T
  14    -67.3057535 -0.362750E-06  0.133E-04    0.03     108.3  T
  15    -67.3057535 -0.607756E-09  0.338E-05    0.03     426.4  T
     SCC iter.                  ...        0 min,  0.272 sec
     gradient                   ...        0 min,  0.058 sec
 * total energy  :   -66.6895007 Eh     change       -0.2812817E-01 Eh
   gradient norm :     0.1000818 Eh/α   predicted    -0.2753354E-01 (  -2.11%)
   displ. norm   :     0.8277968 α      lambda       -0.3546368E-01
   maximum displ.:     0.3477082 α      in ANC's #33, #29, #32, ...

........................................................................
.............................. CYCLE   14 ..............................
........................................................................

 iter      E             dE          RMSdq      gap      omega  full diag
   1    -67.2271154 -0.672271E+02  0.159E+00    0.13       0.0  T
   2    -66.8023683  0.424747E+00  0.366E+00    0.86       1.0  T
   3    -67.0831272 -0.280759E+00  0.233E+00    0.06       1.0  T
   4    -67.0787611  0.436610E-02  0.258E+00    0.18       1.0  T
   5    -67.2822164 -0.203455E+00  0.112E+00    0.02       1.0  T
   6    -67.1310674  0.151149E+00  0.215E+00    0.45       1.0  T
   7    -67.2313615 -0.100294E+00  0.156E+00    0.13       1.0  T
   8    -67.3249231 -0.935616E-01  0.404E-01    0.01       1.0  T
   9    -67.3307253 -0.580222E-02  0.266E-01    0.04       1.0  T
  10    -67.3316503 -0.924938E-03  0.201E-01    0.02       1.0  T
  11    -67.3327270 -0.107672E-02  0.136E-01    0.03       1.0  T
  12    -67.3328234 -0.963777E-04  0.124E-01    0.03       1.0  T
  13    -67.3334813 -0.657981E-03  0.108E-02    0.03       1.3  T
  14    -67.3334799  0.148557E-05  0.128E-02    0.03       1.1  T
  15    -67.3334853 -0.545945E-05  0.689E-03    0.02       2.1  T
  16    -67.3334859 -0.549000E-06  0.578E-03    0.02       2.5  T
  17    -67.3334873 -0.148992E-05  0.500E-04    0.03      28.9  T
  18    -67.3334873  0.965785E-08  0.698E-04    0.03      20.7  T
  19    -67.3334874 -0.200854E-07  0.247E-04    0.03      58.5  T
     SCC iter.                  ...        0 min,  0.192 sec
     gradient                   ...        0 min,  0.047 sec
 * total energy  :   -66.7160332 Eh     change       -0.2653249E-01 Eh
   gradient norm :     0.1091062 Eh/α   predicted    -0.2988257E-01 (  12.63%)
   displ. norm   :     0.6890265 α      lambda       -0.3061194E-01
   maximum displ.:     0.3473735 α      in ANC's #33, #28, #56, ...

........................................................................
.............................. CYCLE   15 ..............................
........................................................................

 iter      E             dE          RMSdq      gap      omega  full diag
   1    -67.2060069 -0.672060E+02  0.200E+00    0.25       0.0  T
   2    -66.7463848  0.459622E+00  0.399E+00    0.87       1.0  T
   3    -67.0799697 -0.333585E+00  0.230E+00    0.02       1.0  T
   4    -67.0544257  0.255440E-01  0.292E+00    0.29       1.0  T
   5    -67.1778712 -0.123446E+00  0.220E+00    0.09       1.0  T
   6    -67.2011409 -0.232697E-01  0.202E+00    0.28       1.0  T
   7    -67.3517513 -0.150610E+00  0.742E-01    0.05       1.0  T
   8    -67.3616087 -0.985733E-02  0.578E-01    0.00       1.0  T
   9    -67.3660957 -0.448704E-02  0.483E-01    0.04       1.0  T
  10    -67.3733499 -0.725418E-02  0.273E-01    0.01       1.0  T
  11    -67.3767481 -0.339820E-02  0.413E-02    0.02       1.0  T
  12    -67.3768079 -0.598355E-04  0.104E-02    0.02       1.4  T
  13    -67.3768119 -0.403288E-05  0.140E-03    0.02      10.3  T
  14    -67.3768113  0.652751E-06  0.404E-03    0.02       3.6  T
  15    -67.3768092  0.210369E-05  0.791E-03    0.02       1.8  T
  16    -67.3768118 -0.266365E-05  0.177E-03    0.02       8.1  T
  17    -67.3768120 -0.119426E-06  0.786E-04    0.02      18.4  T
  18    -67.3768120 -0.137594E-07  0.547E-04    0.02      26.4  T
     SCC iter.                  ...        0 min,  0.304 sec
     gradient                   ...        0 min,  0.097 sec
 * total energy  :   -66.7405842 Eh     change       -0.2455097E-01 Eh
   gradient norm :     0.0940772 Eh/α   predicted    -0.2257261E-01 (  -8.06%)
   displ. norm   :     0.6758386 α      lambda       -0.2853616E-01
   maximum displ.:     0.2532549 α      in ANC's #56, #29, #109, ...

........................................................................
.............................. CYCLE   16 ..............................
........................................................................

 iter      E             dE          RMSdq      gap      omega  full diag
   1    -67.2740832 -0.672741E+02  0.183E+00    0.16       0.0  T
   2    -66.7955899  0.478493E+00  0.394E+00    0.59       1.0  T
   3    -67.0228681 -0.227278E+00  0.271E+00    0.26       1.0  T
   4    -67.1374985 -0.114630E+00  0.216E+00    0.03       1.0  T
   5    -67.2853691 -0.147871E+00  0.171E+00    0.16       1.0  T
   6    -67.4047482 -0.119379E+00  0.274E-01    0.04       1.0  T
   7    -67.2457127  0.159035E+00  0.173E+00    0.01       1.0  T
   8    -67.3823882 -0.136676E+00  0.781E-01    0.08       1.0  T
   9    -67.4078048 -0.254165E-01  0.109E-01    0.04       1.0  T
  10    -67.4081696 -0.364815E-03  0.713E-02    0.03       1.0  T
  11    -67.4070319  0.113770E-02  0.179E-01    0.04       1.0  T
  12    -67.4083138 -0.128194E-02  0.498E-02    0.04       1.0  T
  13    -67.4084254 -0.111609E-03  0.171E-02    0.04       1.0  T
  14    -67.4084407 -0.152562E-04  0.174E-03    0.03       8.3  T
  15    -67.4084403  0.427030E-06  0.332E-03    0.03       4.3  T
  16    -67.4084408 -0.546355E-06  0.227E-04    0.04      63.7  T
  17    -67.4084408 -0.167343E-08  0.303E-05    0.04     476.4  T
     SCC iter.                  ...        0 min,  0.240 sec
     gradient                   ...        0 min,  0.076 sec
 * total energy  :   -66.7584858 Eh     change       -0.1790165E-01 Eh
   gradient norm :     0.1127431 Eh/α   predicted    -0.2078519E-01 (  16.11%)
   displ. norm   :     0.5294426 α      lambda       -0.1374173E-01
   maximum displ.:     0.1985799 α      in ANC's #33, #29, #36, ...

........................................................................
.............................. CYCLE   17 ..............................
........................................................................

 iter      E             dE          RMSdq      gap      omega  full diag
   1    -67.4097379 -0.674097E+02  0.916E-01    0.08       0.0  T
   2    -66.9948482  0.414890E+00  0.350E+00    0.54       1.0  T
   3    -67.2779876 -0.283139E+00  0.183E+00    0.64       1.0  T
   4    -67.3718912 -0.939036E-01  0.116E+00    0.13       1.0  T
   5    -67.2054935  0.166398E+00  0.201E+00    0.13       1.0  T
   6    -67.4228338 -0.217340E+00  0.363E-01    0.07       1.0  T
   7    -67.3859167  0.369170E-01  0.942E-01    0.12       1.0  T
   8    -67.4283331 -0.424164E-01  0.179E-01    0.07       1.0  T
   9    -67.4292268 -0.893614E-03  0.909E-02    0.07       1.0  T
  10    -67.4280099  0.121683E-02  0.171E-01    0.08       1.0  T
  11    -67.4295159 -0.150596E-02  0.383E-02    0.07       1.0  T
  12    -67.4295567 -0.407886E-04  0.658E-03    0.07       2.2  T
  13    -67.4295561  0.595921E-06  0.718E-03    0.07       2.0  T
  14    -67.4295576 -0.151238E-05  0.358E-03    0.07       4.0  T
  15    -67.4295582 -0.573728E-06  0.818E-04    0.07      17.6  T
  16    -67.4295582 -0.182798E-07  0.320E-04    0.07      45.1  T
     SCC iter.                  ...        0 min,  0.185 sec
     gradient                   ...        0 min,  0.052 sec
 * total energy  :   -66.7683757 Eh     change       -0.9889924E-02 Eh
   gradient norm :     0.1349809 Eh/α   predicted    -0.8796844E-02 ( -11.05%)
   displ. norm   :     0.5582355 α      lambda       -0.1533574E-01
   maximum displ.:     0.2236973 α      in ANC's #29, #53, #56, ...

........................................................................
.............................. CYCLE   18 ..............................
........................................................................

 iter      E             dE          RMSdq      gap      omega  full diag
   1    -67.2121774 -0.672122E+02  0.221E+00    0.37       0.0  T
   2    -67.0844283  0.127749E+00  0.317E+00    1.99       1.0  T
   3    -67.2736529 -0.189225E+00  0.213E+00    1.18       1.0  T
   4    -67.3204082 -0.467553E-01  0.180E+00    0.38       1.0  T
   5    -67.2555444  0.648638E-01  0.197E+00    0.20       1.0  T
   6    -67.3359488 -0.804044E-01  0.168E+00    0.32       1.0  T
   7    -67.4567189 -0.120770E+00  0.490E-01    0.14       1.0  T
   8    -67.4469876  0.973123E-02  0.656E-01    0.15       1.0  T
   9    -67.3046871  0.142301E+00  0.171E+00    0.15       1.0  T
  10    -67.4602122 -0.155525E+00  0.395E-01    0.13       1.0  T
  11    -67.4662039 -0.599177E-02  0.205E-01    0.13       1.0  T
  12    -67.4611028  0.510111E-02  0.370E-01    0.13       1.0  T
  13    -67.4675303 -0.642745E-02  0.127E-01    0.13       1.0  T
  14    -67.4681144 -0.584108E-03  0.707E-02    0.13       1.0  T
  15    -67.4683697 -0.255310E-03  0.894E-03    0.13       1.6  T
  16    -67.4683645  0.518282E-05  0.132E-02    0.13       1.1  T
  17    -67.4683719 -0.740087E-05  0.518E-03    0.13       2.8  T
  18    -67.4683733 -0.140195E-05  0.415E-04    0.13      34.8  T
  19    -67.4683733 -0.255675E-08  0.177E-04    0.13      81.3  T
  20    -67.4683733  0.154766E-07  0.560E-04    0.13      25.8  T
     SCC iter.                  ...        0 min,  0.258 sec
     gradient                   ...        0 min,  0.049 sec
 * total energy  :   -66.7820052 Eh     change       -0.1362942E-01 Eh
   gradient norm :     0.1711260 Eh/α   predicted    -0.1005740E-01 ( -26.21%)
   displ. norm   :     0.6804469 α      lambda       -0.2967329E-01
   maximum displ.:     0.1977368 α      in ANC's #24, #106, #72, ...

........................................................................
.............................. CYCLE   19 ..............................
........................................................................

 iter      E             dE          RMSdq      gap      omega  full diag
   1    -67.2835458 -0.672835E+02  0.213E+00    0.89       0.0  T
   2    -67.0537781  0.229768E+00  0.342E+00    1.60       1.0  T
   3    -67.2775274 -0.223749E+00  0.228E+00    0.80       1.0  T
   4    -67.4307458 -0.153218E+00  0.128E+00    0.22       1.0  T
   5    -67.5201386 -0.893928E-01  0.117E-01    0.15       1.0  T
   6    -67.5005287  0.196099E-01  0.625E-01    0.15       1.0  T
   7    -67.4428577  0.576710E-01  0.118E+00    0.20       1.0  T
   8    -67.5150181 -0.721603E-01  0.326E-01    0.15       1.0  T
   9    -67.5116470  0.337105E-02  0.406E-01    0.16       1.0  T
  10    -67.5198115 -0.816445E-02  0.116E-01    0.15       1.0  T
  11    -67.5195044  0.307090E-03  0.139E-01    0.15       1.0  T
  12    -67.5205361 -0.103175E-02  0.372E-03    0.15       3.9  T
  13    -67.5205301  0.597542E-05  0.111E-02    0.15       1.3  T
  14    -67.5205229  0.723823E-05  0.162E-02    0.15       1.0  T
  15    -67.5205362 -0.133190E-04  0.300E-03    0.15       4.8  T
  16    -67.5205365 -0.249436E-06  0.204E-03    0.15       7.1  T
  17    -67.5205367 -0.200850E-06  0.614E-04    0.15      23.5  T
  18    -67.5205367 -0.183456E-07  0.177E-04    0.15      81.3  T
     SCC iter.                  ...        0 min,  0.208 sec
     gradient                   ...        0 min,  0.079 sec
 * total energy  :   -66.7993357 Eh     change       -0.1733055E-01 Eh
   gradient norm :     0.1850796 Eh/α   predicted    -0.2170617E-01 (  25.25%)
   displ. norm   :     0.4205981 α      lambda       -0.2195546E-01
   maximum displ.:     0.1835572 α      in ANC's #29, #19, #135, ...

........................................................................
.............................. CYCLE   20 ..............................
........................................................................

 iter      E             dE          RMSdq      gap      omega  full diag
   1    -67.3483835 -0.673484E+02  0.182E+00    0.53       0.0  T
   2    -66.9229006  0.425483E+00  0.379E+00    0.93       1.0  T
   3    -67.2424430 -0.319542E+00  0.249E+00    0.83       1.0  T
   4    -67.3801768 -0.137734E+00  0.177E+00    0.20       1.0  T
   5    -67.3840258 -0.384893E-02  0.166E+00    0.37       1.0  T
   6    -67.4374327 -0.534070E-01  0.132E+00    0.23       1.0  T
   7    -67.4187581  0.186746E-01  0.152E+00    0.17       1.0  T
   8    -67.5333849 -0.114627E+00  0.238E-01    0.14       1.0  T
   9    -67.5361378 -0.275287E-02  0.853E-02    0.13       1.0  T
  10    -67.5288740  0.726377E-02  0.373E-01    0.14       1.0  T
  11    -67.5362063 -0.733234E-02  0.744E-02    0.13       1.0  T
  12    -67.5365005 -0.294151E-03  0.884E-03    0.13       1.6  T
  13    -67.5365012 -0.678487E-06  0.787E-03    0.13       1.8  T
  14    -67.5365035 -0.235813E-05  0.432E-03    0.13       3.3  T
  15    -67.5365045 -0.994823E-06  0.437E-04    0.13      33.1  T
  16    -67.5365045 -0.869360E-08  0.170E-04    0.13      84.7  T
     SCC iter.                  ...        0 min,  0.226 sec
     gradient                   ...        0 min,  0.088 sec
 * total energy  :   -66.8136268 Eh     change       -0.1429110E-01 Eh
   gradient norm :     0.1845216 Eh/α   predicted    -0.1291976E-01 (  -9.60%)
   displ. norm   :     0.5145982 α      lambda       -0.2970290E-01
   maximum displ.:     0.2496915 α      in ANC's #24, #99, #135, ...
 * RMSD in coord.:     1.4003818 α      energy gain  -0.1011610E+02 Eh

generating ANC from exact Hessian ...
Using Lindh-Hessian (1995)
 Shifting diagonal of input Hessian by    1.0363540958940239E-002
 Lowest  eigenvalues of input Hessian
    0.010000    0.010102    0.010166    0.010225    0.010234    0.010315
    0.000000    0.000000    0.000000    0.000000    0.000000    0.000000
    0.010411    0.010518    0.010538    0.010557    0.010649    0.010667
 Highest eigenvalues
    1.405739    1.419076    1.431771    1.451918    1.526248    2.675157


........................................................................
.............................. CYCLE   21 ..............................
........................................................................

 iter      E             dE          RMSdq      gap      omega  full diag
   1    -67.3479643 -0.673480E+02  0.174E+00    0.54       0.0  T
   2    -66.7042927  0.643672E+00  0.427E+00    0.62       1.0  T
   3    -67.1717649 -0.467472E+00  0.267E+00    0.72       1.0  T
   4    -67.4851574 -0.313393E+00  0.767E-01    0.11       1.0  T
   5    -67.4337491  0.514083E-01  0.120E+00    0.19       1.0  T
   6    -67.4742891 -0.405400E-01  0.887E-01    0.11       1.0  T
   7    -67.5021127 -0.278236E-01  0.494E-01    0.11       1.0  T
   8    -67.5076203 -0.550765E-02  0.369E-01    0.12       1.0  T
   9    -67.5150717 -0.745131E-02  0.379E-02    0.11       1.0  T
  10    -67.5150954 -0.237416E-04  0.306E-02    0.11       1.0  T
  11    -67.5151456 -0.502044E-04  0.285E-03    0.11       5.1  T
  12    -67.5151453  0.339929E-06  0.370E-03    0.11       3.9  T
  13    -67.5151457 -0.395559E-06  0.248E-03    0.11       5.8  T
  14    -67.5151460 -0.312662E-06  0.628E-04    0.11      23.0  T
  15    -67.5151460 -0.210092E-07  0.722E-05    0.11     200.0  T
     SCC iter.                  ...        0 min,  0.268 sec
     gradient                   ...        0 min,  0.054 sec
 * total energy  :   -66.8325517 Eh     change       -0.1892491E-01 Eh
   gradient norm :     0.1508784 Eh/α   predicted     0.0000000E+00 (-100.00%)
   displ. norm   :     0.4379657 α      lambda       -0.3599893E-01
   maximum displ.:     0.1761369 α      in ANC's #30, #44, #85, ...

........................................................................
.............................. CYCLE   22 ..............................
........................................................................

 iter      E             dE          RMSdq      gap      omega  full diag
   1    -67.4077684 -0.674078E+02  0.163E+00    0.72       0.0  T
   2    -66.5135066  0.894262E+00  0.474E+00    0.39       1.0  T
   3    -67.1456635 -0.632157E+00  0.288E+00    0.41       1.0  T
   4    -67.4501295 -0.304466E+00  0.130E+00    0.29       1.0  T
   5    -67.2760989  0.174031E+00  0.234E+00    0.17       1.0  T
   6    -67.5440275 -0.267929E+00  0.916E-02    0.11       1.0  T
   7    -67.4686526  0.753749E-01  0.122E+00    0.11       1.0  T
   8    -67.5422562 -0.736037E-01  0.190E-01    0.12       1.0  T
   9    -67.5438584 -0.160216E-02  0.759E-02    0.12       1.0  T
  10    -67.5427104  0.114797E-02  0.164E-01    0.12       1.0  T
  11    -67.5441304 -0.142000E-02  0.205E-02    0.11       1.0  T
  12    -67.5441407 -0.102846E-04  0.145E-02    0.11       1.0  T
  13    -67.5441514 -0.106720E-04  0.182E-03    0.11       7.9  T
  14    -67.5441515 -0.143019E-06  0.666E-04    0.11      21.7  T
  15    -67.5441515 -0.185697E-07  0.133E-04    0.11     108.3  T
     SCC iter.                  ...        0 min,  0.263 sec
     gradient                   ...        0 min,  0.048 sec
 * total energy  :   -66.8570928 Eh     change       -0.2454107E-01 Eh
   gradient norm :     0.0623591 Eh/α   predicted    -0.2145201E-01 ( -12.59%)
   displ. norm   :     0.5246454 α      lambda       -0.1896501E-01
   maximum displ.:     0.1893228 α      in ANC's #30, #33, #85, ...

........................................................................
.............................. CYCLE   23 ..............................
........................................................................

 iter      E             dE          RMSdq      gap      omega  full diag
   1    -67.4651189 -0.674651E+02  0.143E+00    0.45       0.0  T
   2    -66.6096369  0.855482E+00  0.456E+00    0.20       1.0  T
   3    -67.1019450 -0.492308E+00  0.315E+00    0.27       1.0  T
   4    -67.4937934 -0.391848E+00  0.117E+00    0.21       1.0  T
   5    -67.3902747  0.103519E+00  0.191E+00    0.08       1.0  T
   6    -67.5584205 -0.168146E+00  0.439E-01    0.10       1.0  T
   7    -67.4813826  0.770379E-01  0.132E+00    0.07       1.0  T
   8    -67.5687721 -0.873895E-01  0.126E-02    0.08       1.1  T
   9    -67.5676070  0.116517E-02  0.149E-01    0.09       1.0  T
  10    -67.5683756 -0.768631E-03  0.868E-02    0.09       1.0  T
  11    -67.5687301 -0.354523E-03  0.283E-02    0.08       1.0  T
  12    -67.5687711 -0.410003E-04  0.553E-03    0.08       2.6  T
  13    -67.5687724 -0.132407E-05  0.209E-03    0.08       6.9  T
  14    -67.5687726 -0.194287E-06  0.821E-04    0.08      17.6  T
  15    -67.5687726 -0.519537E-08  0.738E-04    0.08      19.5  T
     SCC iter.                  ...        0 min,  0.179 sec
     gradient                   ...        0 min,  0.066 sec
 * total energy  :   -66.8655677 Eh     change       -0.8474940E-02 Eh
   gradient norm :     0.0580201 Eh/α   predicted    -0.1209283E-01 (  42.69%)
   displ. norm   :     0.4966463 α      lambda       -0.1029905E-01
   maximum displ.:     0.2808282 α      in ANC's #30, #56, #44, ...

........................................................................
.............................. CYCLE   24 ..............................
........................................................................

 iter      E             dE          RMSdq      gap      omega  full diag
   1    -67.4955255 -0.674955E+02  0.125E+00    0.31       0.0  T
   2    -66.6989766  0.796549E+00  0.432E+00    0.11       1.0  T
   3    -67.0654896 -0.366513E+00  0.323E+00    0.14       1.0  T
   4    -67.5008018 -0.435312E+00  0.117E+00    0.28       1.0  T
   5    -67.5542369 -0.534351E-01  0.598E-01    0.13       1.0  T
   6    -67.3887966  0.165440E+00  0.194E+00    0.08       1.0  T
   7    -67.4475849 -0.587883E-01  0.160E+00    0.07       1.0  T
   8    -67.5136317 -0.660469E-01  0.109E+00    0.06       1.0  T
   9    -67.5739795 -0.603478E-01  0.112E-01    0.09       1.0  T
  10    -67.5682102  0.576932E-02  0.348E-01    0.10       1.0  T
  11    -67.5736876 -0.547734E-02  0.123E-01    0.09       1.0  T
  12    -67.5744639 -0.776311E-03  0.285E-02    0.09       1.0  T
  13    -67.5745036 -0.397062E-04  0.112E-02    0.08       1.3  T
  14    -67.5745077 -0.410872E-05  0.622E-03    0.08       2.3  T
  15    -67.5745091 -0.139683E-05  0.345E-03    0.08       4.2  T
  16    -67.5745096 -0.556408E-06  0.179E-04    0.08      80.7  T
  17    -67.5745096  0.516794E-07  0.102E-03    0.08      14.2  T
  18    -67.5745096 -0.373658E-07  0.543E-04    0.08      26.6  T
     SCC iter.                  ...        0 min,  0.196 sec
     gradient                   ...        0 min,  0.082 sec
 * total energy  :   -66.8723773 Eh     change       -0.6809591E-02 Eh
   gradient norm :     0.0358460 Eh/α   predicted    -0.6419697E-02 (  -5.73%)
   displ. norm   :     0.4425691 α      lambda       -0.5158237E-02
   maximum displ.:     0.2067734 α      in ANC's #56, #33, #60, ...

........................................................................
.............................. CYCLE   25 ..............................
........................................................................

 iter      E             dE          RMSdq      gap      omega  full diag
   1    -67.5267947 -0.675268E+02  0.936E-01    0.18       0.0  T
   2    -66.8635963  0.663198E+00  0.387E+00    0.07       1.0  T
   3    -67.0432045 -0.179608E+00  0.320E+00    0.08       1.0  T
   4    -67.4949403 -0.451736E+00  0.121E+00    0.47       1.0  T
   5    -67.4914282  0.351211E-02  0.123E+00    0.61       1.0  T
   6    -67.4919558 -0.527632E-03  0.122E+00    0.63       1.0  T
   7    -67.4962249 -0.426908E-02  0.117E+00    0.49       1.0  T
   8    -67.5008904 -0.466558E-02  0.112E+00    0.37       1.0  T
   9    -67.5167816 -0.158911E-01  0.971E-01    0.22       1.0  T
  10    -67.5711483 -0.543667E-01  0.143E-01    0.08       1.0  T
  11    -67.5244828  0.466655E-01  0.952E-01    0.05       1.0  T
  12    -67.5303831 -0.590033E-02  0.891E-01    0.05       1.0  T
  13    -67.5419964 -0.116133E-01  0.759E-01    0.05       1.0  T
  14    -67.5363589  0.563752E-02  0.826E-01    0.05       1.0  T
  15    -67.5405751 -0.421620E-02  0.776E-01    0.05       1.0  T
  16    -67.4916270  0.489481E-01  0.123E+00    0.05       1.0  T
  17    -67.4283869  0.632400E-01  0.165E+00    0.05       1.0  T
  18    -67.2781294  0.150258E+00  0.237E+00    0.07       1.0  T
  19    -67.1570925  0.121037E+00  0.283E+00    0.08       1.0  T
  20    -67.1975309 -0.404384E-01  0.268E+00    0.08       1.0  T
  21    -67.5478624 -0.350331E+00  0.630E-01    0.14       1.0  T
  22    -67.2637280  0.284134E+00  0.241E+00    0.06       1.0  T
  23    -67.5217424 -0.258014E+00  0.914E-01    0.20       1.0  T
  24    -67.4487603  0.729821E-01  0.151E+00    0.05       1.0  T
  25    -67.5329146 -0.841543E-01  0.800E-01    0.17       1.0  T
  26    -67.5709774 -0.380629E-01  0.209E-01    0.08       1.0  T
  27    -67.5587488  0.122286E-01  0.471E-01    0.12       1.0  T
  28    -67.5607845 -0.203570E-02  0.436E-01    0.12       1.0  T
  29    -67.5616794 -0.894885E-03  0.419E-01    0.12       1.0  T
  30    -67.5669560 -0.527660E-02  0.286E-01    0.10       1.0  T
  31    -67.5630260  0.393004E-02  0.408E-01    0.06       1.0  T
  32    -67.5523316  0.106944E-01  0.592E-01    0.06       1.0  T
  33    -67.5578429 -0.551134E-02  0.497E-01    0.06       1.0  T
  34    -67.5619421 -0.409918E-02  0.419E-01    0.06       1.0  T
  35    -67.5596680  0.227406E-02  0.466E-01    0.06       1.0  T
  36    -67.5575426  0.212538E-02  0.505E-01    0.06       1.0  T
  37    -67.5578250 -0.282322E-03  0.499E-01    0.06       1.0  T
  38    -67.5595213 -0.169631E-02  0.467E-01    0.06       1.0  T
  39    -67.5687043 -0.918306E-02  0.235E-01    0.06       1.0  T
  40    -67.5709712 -0.226686E-02  0.124E-01    0.09       1.0  T
  41    -67.5717228 -0.751573E-03  0.530E-02    0.08       1.0  T
  42    -67.5716200  0.102812E-03  0.542E-02    0.08       1.0  T
  43    -67.5717463 -0.126338E-03  0.298E-02    0.08       1.0  T
  44    -67.5717806 -0.343488E-04  0.151E-02    0.08       1.0  T
  45    -67.5717923 -0.116917E-04  0.479E-03    0.08       3.0  T
  46    -67.5717937 -0.136614E-05  0.541E-04    0.08      26.7  T
  47    -67.5717937  0.320790E-07  0.773E-04    0.08      18.7  T
  48    -67.5717937 -0.339646E-07  0.907E-05    0.08     159.1  T
     SCC iter.                  ...        0 min,  0.709 sec
     gradient                   ...        0 min,  0.088 sec
 * total energy  :   -66.8762332 Eh     change       -0.3855928E-02 Eh
   gradient norm :     0.0203094 Eh/α   predicted    -0.3084283E-02 ( -20.01%)
   displ. norm   :     0.5924938 α      lambda       -0.5287454E-02
   maximum displ.:     0.2777585 α      in ANC's #56, #85, #33, ...

........................................................................
.............................. CYCLE   26 ..............................
........................................................................

 iter      E             dE          RMSdq      gap      omega  full diag
   1    -67.5292748 -0.675293E+02  0.856E-01    0.16       0.0  T
   2    -66.8466547  0.682620E+00  0.401E+00    0.09       1.0  T
   3    -66.9861122 -0.139457E+00  0.345E+00    0.09       1.0  T
   4    -67.4963126 -0.510200E+00  0.116E+00    0.60       1.0  T
   5    -67.4930835  0.322904E-02  0.120E+00    0.78       1.0  T
   6    -67.4939500 -0.866509E-03  0.120E+00    0.78       1.0  T
   7    -67.4980431 -0.409302E-02  0.115E+00    0.61       1.0  T
   8    -67.5023233 -0.428023E-02  0.110E+00    0.45       1.0  T
   9    -67.5055815 -0.325826E-02  0.106E+00    0.35       1.0  T
  10    -67.0157503  0.489831E+00  0.341E+00    0.09       1.0  T
  11    -67.0533265 -0.375762E-01  0.329E+00    0.09       1.0  T
  12    -67.1531136 -0.997871E-01  0.296E+00    0.08       1.0  T
  13    -67.5094260 -0.356312E+00  0.101E+00    0.28       1.0  T
  14    -66.9739403  0.535486E+00  0.353E+00    0.09       1.0  T
  15    -67.5660416 -0.592101E+00  0.217E-01    0.07       1.0  T
  16    -66.9788177  0.587224E+00  0.349E+00    0.08       1.0  T
  17    -67.5479589 -0.569141E+00  0.567E-01    0.12       1.0  T
  18    -66.9747955  0.573163E+00  0.350E+00    0.08       1.0  T
  19    -67.5655930 -0.590798E+00  0.267E-01    0.07       1.0  T
  20    -66.9989740  0.566619E+00  0.339E+00    0.08       1.0  T
  21    -67.5535476 -0.554574E+00  0.497E-01    0.11       1.0  T
  22    -67.0094682  0.544079E+00  0.335E+00    0.09       1.0  T
  23    -67.5650282 -0.555560E+00  0.266E-01    0.08       1.0  T
  24    -67.1644247  0.400603E+00  0.283E+00    0.08       1.0  T
  25    -67.5582827 -0.393858E+00  0.478E-01    0.05       1.0  T
  26    -67.3393545  0.218928E+00  0.212E+00    0.05       1.0  T
  27    -67.4889338 -0.149579E+00  0.125E+00    0.03       1.0  T
  28    -67.4356385  0.532953E-01  0.161E+00    0.03       1.0  T
  29    -67.4640527 -0.284142E-01  0.142E+00    0.03       1.0  T
  30    -67.4768015 -0.127488E-01  0.133E+00    0.03       1.0  T
  31    -67.5279273 -0.511258E-01  0.879E-01    0.04       1.0  T
  32    -67.5302573 -0.232995E-02  0.854E-01    0.04       1.0  T
  33    -67.5440545 -0.137973E-01  0.694E-01    0.04       1.0  T
  34    -67.5436858  0.368733E-03  0.699E-01    0.04       1.0  T
  35    -67.5560967 -0.124109E-01  0.543E-01    0.05       1.0  T
  36    -67.5545898  0.150685E-02  0.563E-01    0.05       1.0  T
  37    -67.5561951 -0.160530E-02  0.523E-01    0.05       1.0  T
  38    -67.5593909 -0.319581E-02  0.364E-01    0.05       1.0  T
  39    -67.5649057 -0.551482E-02  0.208E-01    0.06       1.0  T
  40    -67.5662749 -0.136914E-02  0.113E-01    0.07       1.0  T
  41    -67.5655963  0.678605E-03  0.128E-01    0.06       1.0  T
  42    -67.5647804  0.815895E-03  0.165E-01    0.06       1.0  T
  43    -67.5658442 -0.106379E-02  0.976E-02    0.06       1.0  T
  44    -67.5663921 -0.547897E-03  0.132E-02    0.07       1.1  T
  45    -67.5663939 -0.185272E-05  0.106E-02    0.07       1.4  T
  46    -67.5663885  0.544825E-05  0.141E-02    0.07       1.0  T
  47    -67.5663953 -0.681830E-05  0.931E-03    0.07       1.6  T
  48    -67.5664002 -0.488235E-05  0.189E-03    0.07       7.6  T
  49    -67.5664001  0.649976E-07  0.183E-03    0.07       7.9  T
  50    -67.5664003 -0.185943E-06  0.373E-04    0.07      38.7  T
  51    -67.5664003 -0.306073E-08  0.263E-04    0.07      54.9  T
     SCC iter.                  ...        0 min,  0.638 sec
     gradient                   ...        0 min,  0.072 sec
 * total energy  :   -66.8786718 Eh     change       -0.2438534E-02 Eh
   gradient norm :     0.0423362 Eh/α   predicted    -0.3571809E-02 (  46.47%)
   displ. norm   :     0.5043137 α      lambda       -0.5667772E-02
   maximum displ.:     0.1924569 α      in ANC's #56, #40, #85, ...

........................................................................
.............................. CYCLE   27 ..............................
........................................................................

 iter      E             dE          RMSdq      gap      omega  full diag
   1    -67.5539031 -0.675539E+02  0.651E-01    0.13       0.0  T
   2    -66.8944337  0.659469E+00  0.394E+00    0.13       1.0  T
   3    -67.4932044 -0.598771E+00  0.130E+00    0.01       1.0  T
   4    -67.5303123 -0.371079E-01  0.929E-01    0.20       1.0  T
   5    -67.5644595 -0.341472E-01  0.412E-01    0.10       1.0  T
   6    -67.5719335 -0.747396E-02  0.141E-01    0.06       1.0  T
   7    -67.5724973 -0.563830E-03  0.894E-02    0.06       1.0  T
   8    -67.5727879 -0.290589E-03  0.407E-02    0.07       1.0  T
   9    -67.5728629 -0.749973E-04  0.107E-02    0.07       1.4  T
  10    -67.5728501  0.128152E-04  0.190E-02    0.07       1.0  T
  11    -67.5728443  0.574304E-05  0.220E-02    0.07       1.0  T
  12    -67.5728599 -0.155841E-04  0.127E-02    0.07       1.1  T
  13    -67.5728646 -0.465909E-05  0.796E-03    0.07       1.8  T
  14    -67.5728676 -0.303215E-05  0.510E-04    0.07      28.3  T
  15    -67.5728676 -0.599185E-08  0.353E-04    0.07      40.9  T
  16    -67.5728676 -0.453430E-08  0.165E-04    0.07      87.7  T
     SCC iter.                  ...        0 min,  0.215 sec
     gradient                   ...        0 min,  0.048 sec
 * total energy  :   -66.8806986 Eh     change       -0.2026871E-02 Eh
   gradient norm :     0.0305721 Eh/α   predicted    -0.3554638E-02 (  75.38%)
   displ. norm   :     0.2907582 α      lambda       -0.2930973E-02
   maximum displ.:     0.0954206 α      in ANC's #40, #43, #30, ...

........................................................................
.............................. CYCLE   28 ..............................
........................................................................

 iter      E             dE          RMSdq      gap      omega  full diag
   1    -67.5749859 -0.675750E+02  0.383E-01    0.10       0.0  T
   2    -66.9364387  0.638547E+00  0.380E+00    0.13       1.0  T
   3    -67.5809840 -0.644545E+00  0.115E-01    0.07       1.0  T
   4    -67.5813388 -0.354839E-03  0.405E-02    0.07       1.0  T
   5    -67.5809671  0.371740E-03  0.897E-02    0.08       1.0  T
   6    -67.5813080 -0.340964E-03  0.322E-02    0.07       1.0  T
   7    -67.5813496 -0.415583E-04  0.133E-02    0.07       1.1  T
   8    -67.5813521 -0.254525E-05  0.106E-02    0.07       1.4  T
   9    -67.5813575 -0.537613E-05  0.884E-04    0.07      16.3  T
  10    -67.5813575  0.191391E-07  0.915E-04    0.07      15.8  T
  11    -67.5813575 -0.419318E-08  0.811E-04    0.07      17.8  T
     SCC iter.                  ...        0 min,  0.138 sec
     gradient                   ...        0 min,  0.045 sec
 * total energy  :   -66.8823289 Eh     change       -0.1630290E-02 Eh
   gradient norm :     0.0187060 Eh/α   predicted    -0.1589381E-02 (  -2.51%)
   displ. norm   :     0.4165826 α      lambda       -0.2673146E-02
   maximum displ.:     0.1606172 α      in ANC's #16, #43, #32, ...

........................................................................
.............................. CYCLE   29 ..............................
........................................................................

 iter      E             dE          RMSdq      gap      omega  full diag
   1    -67.5707979 -0.675708E+02  0.465E-01    0.11       0.0  T
   2    -66.9103491  0.660449E+00  0.392E+00    0.15       1.0  T
   3    -67.5716698 -0.661321E+00  0.432E-01    0.05       1.0  T
   4    -67.5647158  0.695402E-02  0.565E-01    0.12       1.0  T
   5    -67.5798626 -0.151468E-01  0.776E-02    0.08       1.0  T
   6    -67.5793917  0.470893E-03  0.126E-01    0.06       1.0  T
   7    -67.5801299 -0.738235E-03  0.211E-02    0.07       1.0  T
   8    -67.5801135  0.163772E-04  0.277E-02    0.07       1.0  T
   9    -67.5801367 -0.231639E-04  0.171E-02    0.07       1.0  T
  10    -67.5801466 -0.993670E-05  0.917E-03    0.07       1.6  T
  11    -67.5801505 -0.386632E-05  0.193E-03    0.07       7.5  T
  12    -67.5801506 -0.136198E-06  0.910E-04    0.07      15.9  T
  13    -67.5801507 -0.361979E-07  0.168E-04    0.07      86.0  T
     SCC iter.                  ...        0 min,  0.176 sec
     gradient                   ...        0 min,  0.088 sec
 * total energy  :   -66.8833430 Eh     change       -0.1014030E-02 Eh
   gradient norm :     0.0245274 Eh/α   predicted    -0.1568527E-02 (  54.68%)
   displ. norm   :     0.3566566 α      lambda       -0.2494434E-02
   maximum displ.:     0.1294726 α      in ANC's #43, #16, #85, ...

........................................................................
.............................. CYCLE   30 ..............................
........................................................................

 iter      E             dE          RMSdq      gap      omega  full diag
   1    -67.5756616 -0.675757E+02  0.428E-01    0.11       0.0  T
   2    -66.9092618  0.666400E+00  0.392E+00    0.14       1.0  T
   3    -67.5832687 -0.674007E+00  0.925E-02    0.08       1.0  T
   4    -67.5833389 -0.701811E-04  0.561E-02    0.07       1.0  T
   5    -67.5829777  0.361216E-03  0.977E-02    0.08       1.0  T
   6    -67.5832586 -0.280882E-03  0.612E-02    0.07       1.0  T
   7    -67.5834345 -0.175989E-03  0.471E-03    0.07       3.1  T
   8    -67.5834304  0.417264E-05  0.101E-02    0.08       1.4  T
   9    -67.5834351 -0.469967E-05  0.138E-03    0.07      10.5  T
  10    -67.5834342  0.820702E-06  0.435E-03    0.07       3.3  T
  11    -67.5834349 -0.607014E-06  0.249E-03    0.07       5.8  T
  12    -67.5834350 -0.188984E-06  0.150E-03    0.07       9.6  T
  13    -67.5834351 -0.105705E-06  0.209E-04    0.07      69.0  T
  14    -67.5834352 -0.115739E-08  0.138E-04    0.07     104.7  T
     SCC iter.                  ...        0 min,  0.123 sec
     gradient                   ...        0 min,  0.085 sec
 * total energy  :   -66.8842531 Eh     change       -0.9101105E-03 Eh
   gradient norm :     0.0249408 Eh/α   predicted    -0.1405868E-02 (  54.47%)
   displ. norm   :     0.3106234 α      lambda       -0.1883011E-02
   maximum displ.:     0.1476968 α      in ANC's #27, #43, #33, ...

........................................................................
.............................. CYCLE   31 ..............................
........................................................................

 iter      E             dE          RMSdq      gap      omega  full diag
   1    -67.5738738 -0.675739E+02  0.430E-01    0.11       0.0  T
   2    -66.8966925  0.677181E+00  0.394E+00    0.14       1.0  T
   3    -67.5816256 -0.684933E+00  0.894E-02    0.08       1.0  T
   4    -67.5816522 -0.265506E-04  0.572E-02    0.08       1.0  T
   5    -67.5816796 -0.274573E-04  0.387E-02    0.08       1.0  T
   6    -67.5816930 -0.133462E-04  0.342E-02    0.07       1.0  T
   7    -67.5817466 -0.536281E-04  0.475E-03    0.08       3.0  T
   8    -67.5817416  0.494355E-05  0.104E-02    0.08       1.4  T
   9    -67.5817466 -0.494703E-05  0.144E-03    0.08      10.0  T
  10    -67.5817453  0.130416E-05  0.531E-03    0.08       2.7  T
  11    -67.5817450  0.300587E-06  0.586E-03    0.08       2.5  T
  12    -67.5817465 -0.152152E-05  0.169E-03    0.08       8.6  T
  13    -67.5817466 -0.126378E-06  0.452E-04    0.08      31.9  T
  14    -67.5817466 -0.968352E-08  0.541E-05    0.08     267.0  T
     SCC iter.                  ...        0 min,  0.175 sec
     gradient                   ...        0 min,  0.049 sec
 * total energy  :   -66.8853985 Eh     change       -0.1145447E-02 Eh
   gradient norm :     0.0120106 Eh/α   predicted    -0.1032353E-02 (  -9.87%)
   displ. norm   :     0.4108917 α      lambda       -0.1443950E-02
   maximum displ.:     0.1760614 α      in ANC's #33, #43, #32, ...

........................................................................
.............................. CYCLE   32 ..............................
........................................................................

 iter      E             dE          RMSdq      gap      omega  full diag
   1    -67.5619036 -0.675619E+02  0.626E-01    0.15       0.0  T
   2    -66.8402370  0.721667E+00  0.416E+00    0.16       1.0  T
   3    -67.5507811 -0.710544E+00  0.781E-01    0.04       1.0  T
   4    -67.5558526 -0.507148E-02  0.704E-01    0.18       1.0  T
   5    -67.5720121 -0.161594E-01  0.398E-01    0.12       1.0  T
   6    -67.5774097 -0.539767E-02  0.220E-01    0.07       1.0  T
   7    -67.5796695 -0.225977E-02  0.442E-02    0.08       1.0  T
   8    -67.5796202  0.493030E-04  0.546E-02    0.08       1.0  T
   9    -67.5797201 -0.998438E-04  0.306E-02    0.08       1.0  T
  10    -67.5797634 -0.433043E-04  0.667E-03    0.08       2.2  T
  11    -67.5797652 -0.183955E-05  0.245E-03    0.08       5.9  T
  12    -67.5797654 -0.246464E-06  0.933E-04    0.08      15.5  T
  13    -67.5797655 -0.887034E-08  0.825E-04    0.08      17.5  T
     SCC iter.                  ...        0 min,  0.144 sec
     gradient                   ...        0 min,  0.088 sec
 * total energy  :   -66.8863037 Eh     change       -0.9052012E-03 Eh
   gradient norm :     0.0209207 Eh/α   predicted    -0.8438715E-03 (  -6.78%)
   displ. norm   :     0.5555367 α      lambda       -0.2045035E-02
   maximum displ.:     0.2994772 α      in ANC's #33, #43, #46, ...

........................................................................
.............................. CYCLE   33 ..............................
........................................................................

 iter      E             dE          RMSdq      gap      omega  full diag
   1    -67.5710489 -0.675710E+02  0.621E-01    0.16       0.0  T
   2    -66.8324869  0.738562E+00  0.419E+00    0.15       1.0  T
   3    -67.5778036 -0.745317E+00  0.468E-01    0.05       1.0  T
   4    -67.5670307  0.107728E-01  0.662E-01    0.18       1.0  T
   5    -67.5826213 -0.155906E-01  0.338E-01    0.12       1.0  T
   6    -67.5842395 -0.161820E-02  0.285E-01    0.07       1.0  T
   7    -67.5880395 -0.379998E-02  0.641E-02    0.09       1.0  T
   8    -67.5874633  0.576228E-03  0.126E-01    0.08       1.0  T
   9    -67.5880408 -0.577574E-03  0.636E-02    0.08       1.0  T
  10    -67.5882401 -0.199222E-03  0.375E-03    0.09       3.9  T
  11    -67.5882269  0.131491E-04  0.167E-02    0.08       1.0  T
  12    -67.5882385 -0.115738E-04  0.666E-03    0.08       2.2  T
  13    -67.5882403 -0.181686E-05  0.276E-03    0.09       5.2  T
  14    -67.5882407 -0.356376E-06  0.639E-04    0.09      22.6  T
  15    -67.5882407 -0.195504E-07  0.994E-05    0.09     145.3  T
     SCC iter.                  ...        0 min,  0.275 sec
     gradient                   ...        0 min,  0.095 sec
 * total energy  :   -66.8870486 Eh     change       -0.7448515E-03 Eh
   gradient norm :     0.0267082 Eh/α   predicted    -0.1338091E-02 (  79.65%)
   displ. norm   :     0.3529996 α      lambda       -0.1739113E-02
   maximum displ.:     0.1173777 α      in ANC's #33, #48, #56, ...

........................................................................
.............................. CYCLE   34 ..............................
........................................................................

 iter      E             dE          RMSdq      gap      omega  full diag
   1    -67.5671307 -0.675671E+02  0.574E-01    0.17       0.0  T
   2    -66.8156557  0.751475E+00  0.422E+00    0.15       1.0  T
   3    -67.5756456 -0.759990E+00  0.374E-01    0.06       1.0  T
   4    -67.5711804  0.446526E-02  0.482E-01    0.15       1.0  T
   5    -67.5822910 -0.111107E-01  0.689E-02    0.10       1.0  T
   6    -67.5815245  0.766542E-03  0.139E-01    0.08       1.0  T
   7    -67.5823018 -0.777365E-03  0.634E-02    0.10       1.0  T
   8    -67.5820644  0.237399E-03  0.935E-02    0.08       1.0  T
   9    -67.5824354 -0.370939E-03  0.361E-02    0.09       1.0  T
  10    -67.5824925 -0.570748E-04  0.128E-02    0.09       1.1  T
  11    -67.5824882  0.430340E-05  0.158E-02    0.09       1.0  T
  12    -67.5825001 -0.118975E-04  0.330E-03    0.09       4.4  T
  13    -67.5825004 -0.356437E-06  0.194E-03    0.09       7.5  T
  14    -67.5825006 -0.152135E-06  0.838E-04    0.09      17.2  T
  15    -67.5825006 -0.309988E-07  0.287E-04    0.09      50.2  T
     SCC iter.                  ...        0 min,  1.083 sec
     gradient                   ...        0 min,  0.123 sec
 * total energy  :   -66.8880745 Eh     change       -0.1025883E-02 Eh
   gradient norm :     0.0170869 Eh/α   predicted    -0.9779110E-03 (  -4.68%)
   displ. norm   :     0.3465081 α      lambda       -0.1577660E-02
   maximum displ.:     0.1460758 α      in ANC's #44, #30, #50, ...

........................................................................
.............................. CYCLE   35 ..............................
........................................................................

 iter      E             dE          RMSdq      gap      omega  full diag
   1    -67.5794877 -0.675795E+02  0.342E-01    0.13       0.0  T
   2    -66.8564026  0.723085E+00  0.405E+00    0.13       1.0  T
   3    -67.5786191 -0.722217E+00  0.375E-01    0.06       1.0  T
   4    -67.5839274 -0.530832E-02  0.161E-01    0.11       1.0  T
[...]

          ...................................................
          :                      SETUP                      :
          :.................................................:
          :  # basis functions                 102          :
          :  # atomic orbitals                 102          :
          :  # shells                           66          :
          :  # electrons                       114          :
          :  max. iterations                   250          :
          :  Hamiltonian                  GFN2-xTB          :
          :  restarted?                      false          :
          :  GBSA solvation                   true          :
          :  PC potential                    false          :
          :  electronic temp.          300.0000000     K    :
          :  accuracy                    1.0000000          :
          :  -> integral cutoff          0.2500000E+02      :
          :  -> integral neglect         0.1000000E-07      :
          :  -> SCF convergence          0.1000000E-05 Eh   :
          :  -> wf. convergence          0.1000000E-03 e    :
          :  Broyden damping             0.4000000          :
          :  net charge                          2          :
          :  unpaired electrons                  0          :
          ...................................................

 iter      E             dE          RMSdq      gap      omega  full diag
   1    -67.7503033 -0.677503E+02  0.471E-02    3.53       0.0  T
   2    -67.7503042 -0.871345E-06  0.277E-02    3.53       1.0  T
   3    -67.7503030  0.119117E-05  0.663E-03    3.53       2.2  T
   4    -67.7503045 -0.151365E-05  0.211E-03    3.53       6.8  T
   5    -67.7503046 -0.710359E-07  0.115E-03    3.53      12.5  T
   6    -67.7503046 -0.106358E-07  0.433E-04    3.53      33.3  T
   7    -67.7503046 -0.115556E-08  0.167E-04    3.53      86.3  T

   *** convergence criteria satisfied after 7 iterations ***

         #    Occupation            Energy/Eh            Energy/eV
      -------------------------------------------------------------
         1        2.0000           -0.7109732             -19.3466
       ...           ...                  ...                  ...
        51        2.0000           -0.4354465             -11.8491
        52        2.0000           -0.4301933             -11.7062
        53        2.0000           -0.4248797             -11.5616
        54        2.0000           -0.4013329             -10.9208
        55        2.0000           -0.3981732             -10.8348
        56        2.0000           -0.3874226             -10.5423
        57        2.0000           -0.3847498             -10.4696 (HOMO)
        58                         -0.2549204              -6.9367 (LUMO)
        59                         -0.1723374              -4.6895
        60                         -0.1375118              -3.7419
        61                         -0.1252962              -3.4095
        62                         -0.0161193              -0.4386
       ...                                ...                  ...
       102                          1.5120051              41.1438
      -------------------------------------------------------------
                  HL-Gap            0.1298294 Eh            3.5328 eV
             Fermi-level           -0.3198351 Eh           -8.7032 eV

 SCC (total)                   0 d,  0 h,  0 min,  0.648 sec
 SCC setup                      ...        0 min,  0.007 sec (  1.094%)
 Dispersion                     ...        0 min,  0.001 sec (  0.089%)
 classical contributions        ...        0 min,  0.000 sec (  0.035%)
 integral evaluation            ...        0 min,  0.036 sec (  5.482%)
 iterations                     ...        0 min,  0.511 sec ( 78.840%)
 molecular gradient             ...        0 min,  0.083 sec ( 12.884%)
 printout                       ...        0 min,  0.008 sec (  1.251%)

         :::::::::::::::::::::::::::::::::::::::::::::::::::::
         ::                     SUMMARY                     ::
         :::::::::::::::::::::::::::::::::::::::::::::::::::::
         :: total energy             -67.033938522741 Eh    ::
         :: total w/o Gsasa/hb       -66.974915764477 Eh    ::
         :: gradient norm              0.004547829116 Eh/a0 ::
         :: HOMO-LUMO gap              3.532836967948 eV    ::
         ::.................................................::
         :: SCC energy               -67.749952621027 Eh    ::
         :: -> isotropic ES            0.567746994310 Eh    ::
         :: -> anisotropic ES         -0.044458740225 Eh    ::
         :: -> anisotropic XC          0.021535087683 Eh    ::
         :: -> dispersion             -0.031027723727 Eh    ::
         :: -> Gsolv                  -0.325035417496 Eh    ::
         ::    -> Gelec               -0.266012659232 Eh    ::
         ::    -> Gsasa                0.000422275713 Eh    ::
         ::    -> Ghb                 -0.060525793675 Eh    ::
         ::    -> Gshift               0.001080759698 Eh    ::
         :: repulsion energy           0.716014098286 Eh    ::
         :: add. restraining           0.000000000000 Eh    ::
         :: total charge               2.000000000000 e     ::
         :::::::::::::::::::::::::::::::::::::::::::::::::::::

           -------------------------------------------------
          |                Property Printout                |
           -------------------------------------------------

    * Orbital Energies and Occupations

         #    Occupation            Energy/Eh            Energy/eV
      -------------------------------------------------------------
         1        2.0000           -0.7109732             -19.3466
       ...           ...                  ...                  ...
        45        2.0000           -0.4593450             -12.4994
        46        2.0000           -0.4531766             -12.3316
        47        2.0000           -0.4500281             -12.2459
        48        2.0000           -0.4471146             -12.1666
        49        2.0000           -0.4455402             -12.1238
        50        2.0000           -0.4428433             -12.0504
        51        2.0000           -0.4354465             -11.8491
        52        2.0000           -0.4301933             -11.7062
        53        2.0000           -0.4248797             -11.5616
        54        2.0000           -0.4013329             -10.9208
        55        2.0000           -0.3981732             -10.8348
        56        2.0000           -0.3874226             -10.5423
        57        2.0000           -0.3847498             -10.4696 (HOMO)
        58                         -0.2549204              -6.9367 (LUMO)
        59                         -0.1723374              -4.6895
        60                         -0.1375118              -3.7419
        61                         -0.1252962              -3.4095
        62                         -0.0161193              -0.4386
        63                          0.0110101               0.2996
        64                          0.0296328               0.8063
        65                          0.0449319               1.2227
        66                          0.0645358               1.7561
        67                          0.0896864               2.4405
        68                          0.0924784               2.5165
       ...                                ...                  ...
       102                          1.5120051              41.1438
      -------------------------------------------------------------
                  HL-Gap            0.1298294 Eh            3.5328 eV
             Fermi-level           -0.3198351 Eh           -8.7032 eV

     #   Z          covCN         q      C6AA      α(0)
     1   6 C        3.752    -0.113    22.713     6.796
     2   6 C        3.801    -0.063    21.718     6.635
     3   6 C        3.803    -0.074    21.909     6.664
     4   6 C        3.805    -0.086    22.140     6.699
     5   6 C        3.761     0.052    19.755     6.336
     6   6 C        3.803    -0.063    21.700     6.632
     7   6 C        4.597    -0.128    22.848     6.788
     8   6 C        1.909    -0.190    36.632     9.775
     9   6 C        1.840     0.114    28.349     8.601
    10   8 O        2.169    -0.298    18.925     5.875
    11   8 O        2.130    -0.569    24.367     6.667
    12   1 H        0.805     0.386     0.512     1.124
    13   1 H        0.925     0.034     2.534     2.490
    14   1 H        0.925     0.024     2.670     2.555
    15   1 H        0.925     0.037     2.483     2.464
    16   1 H        0.924     0.034     2.536     2.490
    17   1 H        0.924     0.040     2.447     2.446
    18   1 H        0.924     0.051     2.311     2.377
    19   1 H        0.924     0.057     2.238     2.340
    20   1 H        0.924     0.115     1.654     2.012
    21   1 H        0.924     0.098     1.807     2.102
    22   1 H        0.925     0.134     1.506     1.919
    23   1 H        0.940     0.242     0.909     1.491
    24   1 H        0.925     0.130     1.538     1.939
    25   1 H        0.926     0.133     1.516     1.925
    26   1 H        0.925     0.174     1.242     1.743
    27   1 H        0.925     0.168     1.277     1.767
    28   1 H        0.928     0.094     1.843     2.123
    29   1 H        0.805     0.382     0.519     1.131
    30  48 Cd       3.646     0.405   192.090    26.603
    31   8 O        2.177    -0.575    24.512     6.687
    32   1 H        0.805     0.379     0.524     1.137
    33   1 H        0.805     0.386     0.511     1.123
    34   8 O        1.540    -0.781    30.038     7.394
    35   1 H        0.813     0.293     0.742     1.352
    36   1 H        0.821     0.421     0.446     1.048
    37   8 O        1.601    -0.708    27.923     7.131
    38   1 H        0.806     0.335     0.625     1.242
    39   1 H        0.801     0.359     0.568     1.184
    40   8 O        1.616    -0.631    25.945     6.875
    41   1 H        0.804     0.383     0.517     1.129
    42   1 H        0.805     0.374     0.535     1.149
    43   8 O        2.250    -0.550    23.941     6.608
    44   1 H        0.806     0.383     0.518     1.130
    45   1 H        0.805     0.382     0.519     1.132
    46   8 O        2.233    -0.557    24.083     6.628
    47   1 H        0.805     0.389     0.505     1.117
    48   1 H        0.805     0.402     0.480     1.088

 Mol. C6AA /au·bohr⁶  :      16701.832780
 Mol. C8AA /au·bohr⁸  :     432271.312899
 Mol. α(0) /au        :        195.663514


Wiberg/Mayer (AO) data.
largest (>0.10) Wiberg bond orders for each atom

 ---------------------------------------------------------------------------
     #   Z sym  total        # sym  WBO       # sym  WBO       # sym  WBO
 ---------------------------------------------------------------------------
     1   6 C    3.995 --     2 C    1.019    13 H    0.988    14 H    0.988
                            15 H    0.987
     2   6 C    3.996 --     1 C    1.019     3 C    1.008    16 H    0.978
                            17 H    0.978
     3   6 C    3.994 --     2 C    1.008     4 C    0.998    18 H    0.976
                            19 H    0.971
     4   6 C    3.985 --     5 C    1.061     3 C    0.998    21 H    0.960
                            20 H    0.914
     5   6 C    3.861 --     6 C    1.129     4 C    1.061    22 H    0.951
                             7 C    0.470    23 H    0.163
     6   6 C    3.929 --     5 C    1.129    25 H    0.959    24 H    0.953
                             7 C    0.824
     7   6 C    3.919 --    27 H    0.938    26 H    0.931     6 C    0.824
                            23 H    0.721     5 C    0.470
     8   6 C    3.948 --     9 C    2.751    28 H    0.969    10 O    0.173
     9   6 C    3.936 --     8 C    2.751    10 O    1.144
    10   8 O    2.365 --     9 C    1.144    36 H    0.702    30 Cd   0.225
                             8 C    0.173
    11   8 O    2.045 --    29 H    0.845    12 H    0.842    30 Cd   0.267
    12   1 H    0.851 --    11 O    0.842
    13   1 H    0.999 --     1 C    0.988
    14   1 H    0.999 --     1 C    0.988
    15   1 H    0.999 --     1 C    0.987
    16   1 H    0.999 --     2 C    0.978
    17   1 H    0.998 --     2 C    0.978
    18   1 H    0.997 --     3 C    0.976
    19   1 H    0.997 --     3 C    0.971
    20   1 H    0.987 --     4 C    0.914
    21   1 H    0.990 --     4 C    0.960
    22   1 H    0.982 --     5 C    0.951
    23   1 H    0.942 --     7 C    0.721     5 C    0.163
    24   1 H    0.983 --     6 C    0.953
    25   1 H    0.982 --     6 C    0.959
    26   1 H    0.970 --     7 C    0.931
    27   1 H    0.972 --     7 C    0.938
    28   1 H    0.990 --     8 C    0.969
    29   1 H    0.854 --    11 O    0.845
    30  48 Cd   2.182 --    34 O    0.520    43 O    0.304    46 O    0.303
                            31 O    0.270    11 O    0.267    10 O    0.225
                            40 O    0.106
    31   8 O    2.048 --    33 H    0.842    32 H    0.819    30 Cd   0.270
    32   1 H    0.856 --    31 O    0.819
    33   1 H    0.851 --    31 O    0.842
    34   8 O    1.780 --    35 H    0.899    30 Cd   0.520    39 H    0.115
    35   1 H    0.914 --    34 O    0.899
    36   1 H    0.823 --    10 O    0.702
    37   8 O    1.809 --    38 H    0.878    39 H    0.742
    38   1 H    0.888 --    37 O    0.878
    39   1 H    0.871 --    37 O    0.742    34 O    0.115
    40   8 O    1.944 --    42 H    0.856    41 H    0.848    30 Cd   0.106
    41   1 H    0.853 --    40 O    0.848
    42   1 H    0.860 --    40 O    0.856
    43   8 O    2.093 --    45 H    0.841    44 H    0.815    30 Cd   0.304
    44   1 H    0.854 --    43 O    0.815
    45   1 H    0.854 --    43 O    0.841
    46   8 O    2.083 --    47 H    0.841    48 H    0.829    30 Cd   0.303
    47   1 H    0.849 --    46 O    0.841
    48   1 H    0.838 --    46 O    0.829
 ---------------------------------------------------------------------------

Topologies differ in total number of bonds
Writing topology from bond orders to xtbtopo.mol

molecular dipole:
                 x           y           z       tot (Debye)
 q only:       18.012      -1.729      -2.781
   full:       18.085      -1.551      -2.392      46.535
molecular quadrupole (traceless):
                xx          xy          yy          xz          yz          zz
 q only:      235.009     -21.918    -110.571     -56.268     -11.890    -124.437
  q+dip:      240.787     -16.701    -114.432     -49.744     -10.487    -126.355
   full:      240.642     -16.497    -112.786     -48.985     -11.017    -127.856

           -------------------------------------------------
          |                Geometry Summary                 |
           -------------------------------------------------

      molecular mass/u    :      378.7416428
   center of mass at/Å    :        5.6429236       0.3181389      -0.0613318
  moments of inertia/u·Å² :        0.7219212E+03   0.6667894E+04   0.6705195E+04
rotational constants/cm⁻¹ :        0.2335107E-01   0.2528179E-02   0.2514115E-02

 * 40 selected distances

     #   Z          #   Z                                           value/Å
     1   6 C        2   6 C                                       1.5251520
     2   6 C        3   6 C                                       1.5282869
     3   6 C        4   6 C                                       1.5309370
     4   6 C        5   6 C                                       1.4824299
     5   6 C        6   6 C                                       1.4354035
     6   6 C        7   6 C                                       1.5648861
     8   6 C        9   6 C                                       1.1995303
     9   6 C       10   8 O                                       1.3013269
    11   8 O       12   1 H                                       0.9666330
     1   6 C       13   1 H                                       1.0892106
     1   6 C       14   1 H                                       1.0879477
     1   6 C       15   1 H                                       1.0889883
     2   6 C       16   1 H                                       1.0930665
     2   6 C       17   1 H                                       1.0928850
     3   6 C       18   1 H                                       1.0926068
     3   6 C       19   1 H                                       1.0935424
     4   6 C       20   1 H                                       1.0955990
     4   6 C       21   1 H                                       1.0907908
     5   6 C       22   1 H                                       1.0836914
     7   6 C       23   1 H                                       1.1184972
     6   6 C       24   1 H                                       1.0819075
     6   6 C       25   1 H                                       1.0805532
     7   6 C       26   1 H                                       1.0872703
     7   6 C       27   1 H                                       1.0869198
     8   6 C       28   1 H                                       1.0464001
    11   8 O       29   1 H                                       0.9674370
    31   8 O       32   1 H                                       0.9760227
    31   8 O       33   1 H                                       0.9676694
    30  48 Cd      34   8 O                                       2.0031703
    34   8 O       35   1 H                                       0.9607030
    10   8 O       36   1 H                                       0.9988472
    37   8 O       38   1 H                                       0.9585602 (min)
    40   8 O       41   1 H                                       0.9681304
    40   8 O       42   1 H                                       0.9639834
    30  48 Cd      43   8 O                                       2.2255663
    43   8 O       44   1 H                                       0.9774468
    43   8 O       45   1 H                                       0.9664722
    30  48 Cd      46   8 O                                       2.2504395 (max)
    46   8 O       47   1 H                                       0.9666004
Note: The following floating-point exceptions are signalling: IEEE_UNDERFLOW_FLAG IEEE_DENORMAL
normal termination of xtb
    46   8 O       48   1 H                                       0.9692614

 * 5 distinct bonds (by element types)

   Z      Z             #   av. dist./Å        max./Å        min./Å
   1 H    6 C          16     1.0881173     1.1184972     1.0464001
   6 C    6 C           7     1.4666608     1.5648861     1.1995303
   1 H    8 O          13     0.9698282     0.9988472     0.9585602
   6 C    8 O           1     1.3013269     1.3013269     1.3013269
   8 O   48 Cd          3     2.1597254     2.2504395     2.0031703


optimized geometry written to: xtbopt.xyz


           -------------------------------------------------
          | TOTAL ENERGY              -67.033938522741 Eh   |
          | GRADIENT NORM               0.004547829116 Eh/α |
          | HOMO-LUMO GAP               3.532836967948 eV   |
           -------------------------------------------------

------------------------------------------------------------------------
 * finished run on 2026/05/26 at 02:14:33.607     
------------------------------------------------------------------------
 total:
 * wall-time:     0 d,  0 h,  1 min, 20.394 sec
 *  cpu-time:     0 d,  0 h,  2 min, 11.086 sec
 * ratio c/w:     1.631 speedup
 SCF:
 * wall-time:     0 d,  0 h,  0 min,  3.047 sec
 *  cpu-time:     0 d,  0 h,  0 min,  3.165 sec
 * ratio c/w:     1.039 speedup
 ANC optimizer:
 * wall-time:     0 d,  0 h,  1 min, 17.286 sec
 *  cpu-time:     0 d,  0 h,  2 min,  7.845 sec
 * ratio c/w:     1.654 speedup

