      -----------------------------------------------------------      
     |                   =====================                   |     
     |                           x T B                           |     
     |                   =====================                   |     
     |                         S. Grimme                         |     
     |          Mulliken Center for Theoretical Chemistry        |     
     |                    University of Bonn                     |     
      -----------------------------------------------------------      

   * xtb version 6.7.1 (edcfbbe) compiled by 'conda@c0858423619e' on 2025-09-04

   xtb is free software: you can redistribute it and/or modify it under
   the terms of the GNU Lesser General Public License as published by
   the Free Software Foundation, either version 3 of the License, or
   (at your option) any later version.
   
   xtb is distributed in the hope that it will be useful,
   but WITHOUT ANY WARRANTY; without even the implied warranty of
   MERCHANTABILITY or FITNESS FOR A PARTICULAR PURPOSE.  See the
   GNU Lesser General Public License for more details.
   
   Cite this work as:
   * C. Bannwarth, E. Caldeweyher, S. Ehlert, A. Hansen, P. Pracht,
     J. Seibert, S. Spicher, S. Grimme, WIREs Comput. Mol. Sci., 2020, 11,
     e01493. DOI: 10.1002/wcms.1493
   
   for GFN2-xTB:
   * C. Bannwarth, S. Ehlert and S. Grimme., J. Chem. Theory Comput., 2019,
     15, 1652-1671. DOI: 10.1021/acs.jctc.8b01176
   for GFN1-xTB:
   * S. Grimme, C. Bannwarth, P. Shushkov, J. Chem. Theory Comput., 2017,
     13, 1989-2009. DOI: 10.1021/acs.jctc.7b00118
   for GFN0-xTB:
   * P. Pracht, E. Caldeweyher, S. Ehlert, S. Grimme, ChemRxiv, 2019, preprint.
     DOI: 10.26434/chemrxiv.8326202.v1
   for GFN-FF:
   * S. Spicher and S. Grimme, Angew. Chem. Int. Ed., 2020, 59, 15665-15673.
     DOI: 10.1002/anie.202004239
   
   for ALPB and GBSA implicit solvation:
   * S. Ehlert, M. Stahn, S. Spicher, S. Grimme, J. Chem. Theory Comput.,
     2021, 17, 4250-4261. DOI: 10.1021/acs.jctc.1c00471
   
   for ddCOSMO and CPCM-X implicit solvation:
   * M. Stahn, S. Ehlert, S. Grimme, J. Phys. Chem. A,
     2023, XX, XXXX-XXXX. DOI: 10.1021/acs.jpca.3c04382
   
   for DFT-D4:
   * E. Caldeweyher, C. Bannwarth and S. Grimme, J. Chem. Phys., 2017,
     147, 034112. DOI: 10.1063/1.4993215
   * E. Caldeweyher, S. Ehlert, A. Hansen, H. Neugebauer, S. Spicher,
     C. Bannwarth and S. Grimme, J. Chem. Phys., 2019, 150, 154122.
     DOI: 10.1063/1.5090222
   * E. Caldeweyher, J.-M. Mewes, S. Ehlert and S. Grimme, Phys. Chem. Chem. Phys.
     2020, 22, 8499-8512. DOI: 10.1039/D0CP00502A
   
   for sTDA-xTB:
   * S. Grimme and C. Bannwarth, J. Chem. Phys., 2016, 145, 054103.
     DOI: 10.1063/1.4959605
   
   in the mass-spec context:
   * V. Asgeirsson, C. Bauer and S. Grimme, Chem. Sci., 2017, 8, 4879.
     DOI: 10.1039/c7sc00601b
   * J. Koopman and S. Grimme, ACS Omega 2019, 4, 12, 15120-15133.
     DOI: 10.1021/acsomega.9b02011
   
   for metadynamics refer to:
   * S. Grimme, J. Chem. Theory Comput., 2019, 155, 2847-2862
     DOI: 10.1021/acs.jctc.9b00143
   
   for SPH calculations refer to:
   * S. Spicher and S. Grimme, J. Chem. Theory Comput., 2021, 17, 1701-1714
     DOI: 10.1021/acs.jctc.0c01306
   
   for ONIOM refer to:
   * C. Plett, A. Katbashev, S. Ehlert, S. Grimme, M. Bursch,
     Phys. Chem. Chem. Phys., 2023, 25, 17860-17868. DOI: 10.1039/D3CP02178E
   
   for DIPRO refer to:
   * J. Kohn, N. Gildemeister, S. Grimme, D. Fazzi, A. Hansen,
     J. Chem. Phys., 2023, just accepted.
   
   for PTB refer to:
   * S. Grimme, M. Mueller, A. Hansen, J. Chem. Phys., 2023, 158, 124111.
     DOI: 10.1063/5.0137838
   
   with help from (in alphabetical order)
   P. Atkinson, C. Bannwarth, F. Bohle, G. Brandenburg, E. Caldeweyher
   M. Checinski, S. Dohm, S. Ehlert, S. Ehrlich, I. Gerasimov, C. Hölzer
   A. Katbashev, J. Kohn, J. Koopman, C. Lavigne, S. Lehtola, F. März, M. Müller,
   F. Musil, H. Neugebauer, J. Pisarek, C. Plett, P. Pracht, F. Pultar,
   J. Seibert, P. Shushkov, S. Spicher, M. Stahn, M. Steiner, T. Strunk,
   J. Stückrath, T. Rose, and J. Unsleber
   
 * started run on 2026/05/26 at 02:17:04.072     
   ID    Z sym.   atoms
    1    6 C      1-9
    2    8 O      10, 11, 31, 34, 37, 40, 43, 46
    3    1 H      12-29, 32, 33, 35, 36, 38, 39, 41, 42, 44, 45, 47, 48
    4   48 Cd     30

           -------------------------------------------------
          |                Calculation Setup                |
           -------------------------------------------------

          program call               : /content/xtb_env/bin/xtb input.xyz --gfn 2 --opt tight --alpb water --chrg 2 --uhf 0
          hostname                   : 01035569fb61
          coordinate file            : input.xyz
          omp threads                :                     2


molecular fragmentation (1/2 indicates fragments):
111111111111111111111111111112222222222222222222
# atoms in fragment 1/2:    29    19
 fragment masses (1/2) :      158.24      220.50
CMA distance (Bohr)    :  21.682
constraining FC (au)   :  0.0500

           -------------------------------------------------
          |                 G F N 2 - x T B                 |
           -------------------------------------------------

        Reference                      10.1021/acs.jctc.8b01176
      * Hamiltonian:
        H0-scaling (s, p, d)           1.850000    2.230000    2.230000
        zeta-weighting                 0.500000
      * Dispersion:
        s8                             2.700000
        a1                             0.520000
        a2                             5.000000
        s9                             5.000000
      * Repulsion:
        kExp                           1.500000    1.000000
        rExp                           1.000000
      * Coulomb:
        alpha                          2.000000
        third order                    shell-resolved
        anisotropic                    true
        a3                             3.000000
        a5                             4.000000
        cn-shift                       1.200000
        cn-exp                         4.000000
        max-rad                        5.000000

      * Solvation model:               ALPB
        Solvent                        water
        Parameter file                 internal GFN2-xTB/ALPB
        Dielectric constant                8.0200E+01
        Reference state                gsolv [1 M gas/solution]
        Free energy shift                  1.0808E-03 Eh       6.7819E-01 kcal/mol
        Temperature                        2.9815E+02 K
        Density                            1.0000E+00 kg/L
        Solvent mass                       1.8000E+01 g/mol
        Interaction kernel             P16
        Born radius scaling (c1)           1.4744E+00
        Born radii integrator          GBOBC
        Born offset                        0.0000E+00 a0       0.0000E+00 AA
        H-bond correction              true
        Ion screening                  false
        Surface tension                    1.0000E-05 Eh       1.5569E+01 dyn/cm
        Grid points                               230 per atom

          ...................................................
          :                      SETUP                      :
          :.................................................:
          :  # basis functions                 102          :
          :  # atomic orbitals                 102          :
          :  # shells                           66          :
          :  # electrons                       114          :
          :  max. iterations                   250          :
          :  Hamiltonian                  GFN2-xTB          :
          :  restarted?                      false          :
          :  GBSA solvation                   true          :
          :  PC potential                    false          :
          :  electronic temp.          300.0000000     K    :
          :  accuracy                    1.0000000          :
          :  -> integral cutoff          0.2500000E+02      :
          :  -> integral neglect         0.1000000E-07      :
          :  -> SCF convergence          0.1000000E-05 Eh   :
          :  -> wf. convergence          0.1000000E-03 e    :
          :  Broyden damping             0.4000000          :
          :  net charge                          2          :
          :  unpaired electrons                  0          :
          ...................................................

 iter      E             dE          RMSdq      gap      omega  full diag
   1    -65.8038374 -0.658038E+02  0.589E+00    0.31       0.0  T
   2    -65.9750170 -0.171180E+00  0.355E+00    0.23       1.0  T
   3    -66.2752648 -0.300248E+00  0.276E+00    0.30       1.0  T
   4    -65.8400650  0.435200E+00  0.290E+00    0.59       1.0  T
   5    -66.3558561 -0.515791E+00  0.113E+00    0.36       1.0  T
   6    -66.3876529 -0.317968E-01  0.552E-01    0.19       1.0  T
   7    -66.3881413 -0.488437E-03  0.507E-01    0.10       1.0  T
   8    -66.3917472 -0.360592E-02  0.220E-01    0.14       1.0  T
   9    -66.2205693  0.171178E+00  0.125E+00    0.04       1.0  T
  10    -66.3848729 -0.164304E+00  0.276E-01    0.25       1.0  T
  11    -66.3867601 -0.188715E-02  0.240E-01    0.25       1.0  T
  12    -66.3889228 -0.216275E-02  0.189E-01    0.21       1.0  T
  13    -66.3915082 -0.258536E-02  0.107E-01    0.16       1.0  T
  14    -66.3924534 -0.945237E-03  0.525E-02    0.14       1.0  T
  15    -66.3925854 -0.131933E-03  0.397E-02    0.13       1.0  T
  16    -66.3927258 -0.140433E-03  0.188E-02    0.13       1.0  T
  17    -66.3927548 -0.289666E-04  0.959E-03    0.12       1.5  T
  18    -66.3927612 -0.642535E-05  0.612E-03    0.12       2.4  T
  19    -66.3927655 -0.430665E-05  0.413E-04    0.12      34.9  T
  20    -66.3927655 -0.105638E-07  0.141E-04    0.12     102.6  T
  21    -66.3927655  0.355382E-08  0.209E-04    0.12      69.0  T

   *** convergence criteria satisfied after 21 iterations ***

         #    Occupation            Energy/Eh            Energy/eV
      -------------------------------------------------------------
         1        2.0000           -0.7491203             -20.3846
       ...           ...                  ...                  ...
        51        2.0000           -0.3848966             -10.4736
        52        2.0000           -0.3642306              -9.9112
        53        2.0000           -0.3602091              -9.8018
        54        2.0000           -0.3303841              -8.9902
        55        2.0000           -0.3070645              -8.3557
        56        2.0000           -0.2926419              -7.9632
        57        1.8234           -0.2719780              -7.4009 (HOMO)
        58        0.1749           -0.2675316              -7.2799 (LUMO)
        59        0.0017           -0.2630578              -7.1582
        60                         -0.2237846              -6.0895
        61                         -0.2123839              -5.7793
        62                         -0.1724026              -4.6913
       ...                                ...                  ...
       102                          0.9254504              25.1828
      -------------------------------------------------------------
                  HL-Gap            0.0044464 Eh            0.1210 eV
             Fermi-level           -0.2697599 Eh           -7.3405 eV

 SCC (total)                   0 d,  0 h,  0 min,  0.481 sec
 SCC setup                      ...        0 min,  0.010 sec (  1.987%)
 Dispersion                     ...        0 min,  0.008 sec (  1.665%)
 classical contributions        ...        0 min,  0.004 sec (  0.787%)
 integral evaluation            ...        0 min,  0.021 sec (  4.313%)
 iterations                     ...        0 min,  0.380 sec ( 79.056%)
 molecular gradient             ...        0 min,  0.051 sec ( 10.644%)
 printout                       ...        0 min,  0.007 sec (  1.539%)

         :::::::::::::::::::::::::::::::::::::::::::::::::::::
         ::                     SUMMARY                     ::
         :::::::::::::::::::::::::::::::::::::::::::::::::::::
         :: total energy             -65.772086620709 Eh    ::
         :: total w/o Gsasa/hb       -65.682494362449 Eh    ::
         :: gradient norm              0.826858018723 Eh/a0 ::
         :: HOMO-LUMO gap              0.120992386907 eV    ::
         ::.................................................::
         :: SCC energy               -66.393002479671 Eh    ::
         :: -> isotropic ES            0.551614305801 Eh    ::
         :: -> anisotropic ES         -0.005192505897 Eh    ::
         :: -> anisotropic XC          0.036204824395 Eh    ::
         :: -> dispersion             -0.024111677873 Eh    ::
         :: -> Gsolv                  -0.335007673408 Eh    ::
         ::    -> Gelec               -0.245415415148 Eh    ::
         ::    -> Gsasa               -0.000310126719 Eh    ::
         ::    -> Ghb                 -0.090362891238 Eh    ::
         ::    -> Gshift               0.001080759698 Eh    ::
         :: repulsion energy           0.620915858963 Eh    ::
         :: add. restraining           0.000000000000 Eh    ::
         :: total charge               2.000000000000 e     ::
         :::::::::::::::::::::::::::::::::::::::::::::::::::::

      ----------------------------------------------------------- 
     |                   =====================                   |
     |                        A N C O P T                        |
     |                   =====================                   |
     |               Approximate Normal Coordinate               |
     |                Rational Function Optimizer                |
      ----------------------------------------------------------- 
      ----------------------------------------------------------- 
     |                   =====================                   |
     |                        A N C O P T                        |
     |                   =====================                   |
     |               Approximate Normal Coordinate               |
     |                Rational Function Optimizer                |
      ----------------------------------------------------------- 

          ...................................................
          :                      SETUP                      :
          :.................................................:
          :   optimization level             tight          :
          :   max. optcycles                   240          :
          :   ANC micro-cycles                  20          :
          :   degrees of freedom               138          :
          :.................................................:
          :   RF solver                   davidson          :
          :   write xtbopt.log                true          :
          :   linear?                        false          :
          :   energy convergence         0.1000000E-05 Eh   :
          :   grad. convergence          0.8000000E-03 Eh/α :
          :   maxmium RF displ.          1.0000000          :
          :   Hlow (freq-cutoff)         0.1000000E-01      :
          :   Hmax (freq-cutoff)         5.0000000          :
          :   S6 in model hess.         20.0000000          :
          ...................................................

generating ANC from exact Hessian ...
Using Lindh-Hessian (1995)
 Shifting diagonal of input Hessian by    1.0155122965832339E-002
 Lowest  eigenvalues of input Hessian
    0.010000    0.010020    0.010065    0.010073    0.010098    0.010114
    0.000000    0.010141    0.000000    0.000000    0.000000    0.000000
    0.000000    0.010172    0.010242    0.010265    0.010283    0.010294
 Highest eigenvalues
    1.371440    1.385121    1.394945    1.481907    2.411414    2.704659


........................................................................
.............................. CYCLE    1 ..............................
........................................................................

 iter      E             dE          RMSdq      gap      omega  full diag
   1    -66.3927655 -0.663928E+02  0.210E-04    0.12       0.0  T
   2    -66.3927651  0.421183E-06  0.189E-03    0.12       7.6  T
   3    -66.3927655 -0.426134E-06  0.406E-05    0.12     355.8  T
   4    -66.3927655  0.929390E-11  0.275E-05    0.12     524.2  T
     SCC iter.                  ...        0 min,  0.069 sec
     gradient                   ...        0 min,  0.089 sec
 * total energy  :   -65.7720866 Eh     change       -0.4455089E-08 Eh
   gradient norm :     0.8268431 Eh/α   predicted     0.0000000E+00 (-100.00%)
   displ. norm   :     0.7267418 α      lambda       -0.5643899E+00
   maximum displ.:     0.5529695 α      in ANC's #97, #131, #98, ...

........................................................................
.............................. CYCLE    2 ..............................
........................................................................

 iter      E             dE          RMSdq      gap      omega  full diag
   1    -66.4611987 -0.664612E+02  0.896E-01    0.70       0.0  T
   2    -66.4441678  0.170309E-01  0.676E-01    0.07       1.0  T
   3    -66.4560944 -0.119266E-01  0.507E-01    0.98       1.0  T
   4    -66.4633752 -0.728083E-02  0.236E-01    0.56       1.0  T
   5    -66.4653765 -0.200125E-02  0.153E-01    0.36       1.0  T
   6    -66.4660524 -0.675930E-03  0.119E-01    0.29       1.0  T
   7    -66.4668312 -0.778788E-03  0.773E-02    0.22       1.0  T
   8    -66.4672171 -0.385906E-03  0.273E-02    0.18       1.0  T
   9    -66.4664716  0.745463E-03  0.839E-02    0.13       1.0  T
  10    -66.4672173 -0.745687E-03  0.187E-02    0.18       1.0  T
  11    -66.4672516 -0.342688E-04  0.324E-03    0.17       4.5  T
  12    -66.4672514  0.193915E-06  0.250E-03    0.17       5.8  T
  13    -66.4672517 -0.362967E-06  0.132E-03    0.17      11.0  T
  14    -66.4672517  0.712028E-07  0.141E-03    0.17      10.2  T
  15    -66.4672519 -0.213239E-06  0.108E-04    0.17     133.1  T
  16    -66.4672519  0.215252E-07  0.450E-04    0.17      32.0  T
     SCC iter.                  ...        0 min,  0.190 sec
     gradient                   ...        0 min,  0.048 sec
 * total energy  :   -65.8959418 Eh     change       -0.1238552E+00 Eh
   gradient norm :     0.3682946 Eh/α   predicted    -0.4312438E+00 ( 248.18%)
   displ. norm   :     0.7589702 α      lambda       -0.2279094E+00
   maximum displ.:     0.4675090 α      in ANC's #61, #63, #96, ...

........................................................................
.............................. CYCLE    3 ..............................
........................................................................

 iter      E             dE          RMSdq      gap      omega  full diag
   1    -66.6804833 -0.666805E+02  0.583E-01    0.58       0.0  T
   2    -66.6817134 -0.123011E-02  0.342E-01    0.44       1.0  T
   3    -66.6813014  0.411974E-03  0.247E-01    0.45       1.0  T
   4    -66.6823010 -0.999639E-03  0.876E-02    0.41       1.0  T
   5    -66.6825546 -0.253539E-03  0.279E-02    0.39       1.0  T
   6    -66.6825664 -0.117949E-04  0.186E-02    0.38       1.0  T
   7    -66.6825747 -0.830834E-05  0.884E-03    0.38       1.6  T
   8    -66.6825755 -0.843716E-06  0.458E-03    0.39       3.2  T
   9    -66.6825759 -0.361297E-06  0.163E-03    0.39       8.8  T
  10    -66.6825759 -0.352672E-07  0.841E-04    0.38      17.2  T
  11    -66.6825759 -0.902581E-08  0.351E-04    0.38      41.1  T
     SCC iter.                  ...        0 min,  0.180 sec
     gradient                   ...        0 min,  0.088 sec
 * total energy  :   -66.0852081 Eh     change       -0.1892663E+00 Eh
   gradient norm :     0.3224789 Eh/α   predicted    -0.1795973E+00 (  -5.11%)
   displ. norm   :     0.7372555 α      lambda       -0.1910049E+00
   maximum displ.:     0.3989505 α      in ANC's #61, #63, #98, ...

........................................................................
.............................. CYCLE    4 ..............................
........................................................................

 iter      E             dE          RMSdq      gap      omega  full diag
   1    -66.8849935 -0.668850E+02  0.606E-01    0.69       0.0  T
   2    -66.8861422 -0.114867E-02  0.346E-01    0.76       1.0  T
   3    -66.8857626  0.379569E-03  0.201E-01    0.77       1.0  T
   4    -66.8865407 -0.778056E-03  0.480E-02    0.75       1.0  T
   5    -66.8865769 -0.362239E-04  0.265E-02    0.74       1.0  T
   6    -66.8865970 -0.201025E-04  0.105E-02    0.74       1.4  T
   7    -66.8865976 -0.606969E-06  0.697E-03    0.74       2.1  T
   8    -66.8865982 -0.633809E-06  0.350E-03    0.74       4.1  T
   9    -66.8865985 -0.302319E-06  0.123E-03    0.74      11.7  T
  10    -66.8865985 -0.186562E-07  0.611E-04    0.74      23.6  T
  11    -66.8865986 -0.507369E-08  0.223E-04    0.74      64.7  T
     SCC iter.                  ...        0 min,  0.098 sec
     gradient                   ...        0 min,  0.062 sec
 * total energy  :   -66.2537316 Eh     change       -0.1685235E+00 Eh
   gradient norm :     0.3046337 Eh/α   predicted    -0.1474126E+00 ( -12.53%)
   displ. norm   :     0.8135570 α      lambda       -0.1985230E+00
   maximum displ.:     0.4246414 α      in ANC's #61, #63, #98, ...

........................................................................
.............................. CYCLE    5 ..............................
........................................................................

 iter      E             dE          RMSdq      gap      omega  full diag
   1    -67.0636596 -0.670637E+02  0.648E-01    0.98       0.0  T
   2    -67.0653609 -0.170132E-02  0.361E-01    1.10       1.0  T
   3    -67.0650480  0.312897E-03  0.165E-01    1.12       1.0  T
   4    -67.0654924 -0.444345E-03  0.747E-02    1.12       1.0  T
   5    -67.0656096 -0.117276E-03  0.319E-02    1.11       1.0  T
   6    -67.0656417 -0.320991E-04  0.933E-03    1.10       1.5  T
   7    -67.0656421 -0.416640E-06  0.435E-03    1.10       3.3  T
   8    -67.0656423 -0.119966E-06  0.160E-03    1.10       9.0  T
   9    -67.0656423 -0.255792E-07  0.939E-04    1.10      15.4  T
  10    -67.0656423 -0.949171E-08  0.302E-04    1.10      47.8  T
     SCC iter.                  ...        0 min,  0.082 sec
     gradient                   ...        0 min,  0.050 sec
 * total energy  :   -66.4341978 Eh     change       -0.1804662E+00 Eh
   gradient norm :     0.2790393 Eh/α   predicted    -0.1649604E+00 (  -8.59%)
   displ. norm   :     0.8559904 α      lambda       -0.1992663E+00
   maximum displ.:     0.4400015 α      in ANC's #61, #63, #98, ...

........................................................................
.............................. CYCLE    6 ..............................
........................................................................

 iter      E             dE          RMSdq      gap      omega  full diag
   1    -67.2002497 -0.672002E+02  0.630E-01    1.37       0.0  T
   2    -67.2022398 -0.199006E-02  0.357E-01    1.49       1.0  T
   3    -67.2016674  0.572336E-03  0.209E-01    1.54       1.0  T
   4    -67.2026708 -0.100332E-02  0.751E-02    1.54       1.0  T
   5    -67.2027710 -0.100232E-03  0.209E-02    1.53       1.0  T
   6    -67.2027793 -0.835126E-05  0.899E-03    1.53       1.6  T
   7    -67.2027798 -0.438749E-06  0.380E-03    1.53       3.8  T
   8    -67.2027799 -0.167279E-06  0.168E-03    1.53       8.6  T
   9    -67.2027800 -0.137165E-07  0.968E-04    1.53      14.9  T
  10    -67.2027800 -0.894904E-08  0.208E-04    1.53      69.3  T
     SCC iter.                  ...        0 min,  0.079 sec
     gradient                   ...        0 min,  0.048 sec
 * total energy  :   -66.6071654 Eh     change       -0.1729676E+00 Eh
   gradient norm :     0.2205474 Eh/α   predicted    -0.1726365E+00 (  -0.19%)
   displ. norm   :     0.8414665 α      lambda       -0.1584141E+00
   maximum displ.:     0.4492861 α      in ANC's #61, #35, #97, ...

........................................................................
.............................. CYCLE    7 ..............................
........................................................................

 iter      E             dE          RMSdq      gap      omega  full diag
   1    -67.3038712 -0.673039E+02  0.541E-01    1.92       0.0  T
   2    -67.3048497 -0.978534E-03  0.309E-01    1.98       1.0  T
   3    -67.3044371  0.412609E-03  0.169E-01    2.06       1.0  T
   4    -67.3051794 -0.742317E-03  0.390E-02    2.04       1.0  T
   5    -67.3051993 -0.198858E-04  0.134E-02    2.04       1.1  T
   6    -67.3052008 -0.148908E-05  0.764E-03    2.04       1.9  T
   7    -67.3052013 -0.534562E-06  0.278E-03    2.04       5.2  T
   8    -67.3052014 -0.475293E-07  0.159E-03    2.04       9.1  T
   9    -67.3052014 -0.133230E-07  0.514E-04    2.04      28.1  T
  10    -67.3052014 -0.390884E-08  0.170E-04    2.04      84.9  T
     SCC iter.                  ...        0 min,  0.188 sec
     gradient                   ...        0 min,  0.050 sec
 * total energy  :   -66.7417684 Eh     change       -0.1346030E+00 Eh
   gradient norm :     0.1787036 Eh/α   predicted    -0.1352909E+00 (   0.51%)
   displ. norm   :     0.8170074 α      lambda       -0.1201676E+00
   maximum displ.:     0.3900106 α      in ANC's #61, #35, #48, ...

........................................................................
.............................. CYCLE    8 ..............................
........................................................................

 iter      E             dE          RMSdq      gap      omega  full diag
   1    -67.3936349 -0.673936E+02  0.510E-01    2.55       0.0  T
   2    -67.3945459 -0.911041E-03  0.281E-01    2.59       1.0  T
   3    -67.3945279  0.180019E-04  0.878E-02    2.61       1.0  T
   4    -67.3945638 -0.358879E-04  0.344E-02    2.60       1.0  T
   5    -67.3946045 -0.406809E-04  0.915E-03    2.61       1.6  T
   6    -67.3946049 -0.434022E-06  0.527E-03    2.61       2.7  T
   7    -67.3946051 -0.168036E-06  0.173E-03    2.61       8.4  T
   8    -67.3946051 -0.306570E-07  0.865E-04    2.61      16.7  T
   9    -67.3946051 -0.459586E-08  0.245E-04    2.61      58.8  T
     SCC iter.                  ...        0 min,  0.071 sec
     gradient                   ...        0 min,  0.050 sec
 * total energy  :   -66.8440143 Eh     change       -0.1022459E+00 Eh
   gradient norm :     0.1352668 Eh/α   predicted    -0.1001898E+00 (  -2.01%)
   displ. norm   :     0.7940401 α      lambda       -0.8950963E-01
   maximum displ.:     0.4335612 α      in ANC's #35, #48, #61, ...

........................................................................
.............................. CYCLE    9 ..............................
........................................................................

 iter      E             dE          RMSdq      gap      omega  full diag
   1    -67.4886439 -0.674886E+02  0.477E-01    3.15       0.0  T
   2    -67.4889923 -0.348416E-03  0.274E-01    3.16       1.0  T
   3    -67.4889804  0.118968E-04  0.517E-02    3.18       1.0  T
   4    -67.4890164 -0.359070E-04  0.168E-02    3.17       1.0  T
   5    -67.4890249 -0.852781E-05  0.660E-03    3.18       2.2  T
   6    -67.4890252 -0.359799E-06  0.391E-03    3.18       3.7  T
   7    -67.4890253 -0.914352E-07  0.101E-03    3.18      14.3  T
   8    -67.4890253 -0.120742E-07  0.512E-04    3.18      28.2  T
   9    -67.4890253 -0.107035E-08  0.157E-04    3.18      92.1  T
     SCC iter.                  ...        0 min,  0.071 sec
     gradient                   ...        0 min,  0.048 sec
 * total energy  :   -66.9188687 Eh     change       -0.7485445E-01 Eh
   gradient norm :     0.1125679 Eh/α   predicted    -0.7297271E-01 (  -2.51%)
   displ. norm   :     0.8277381 α      lambda       -0.6550795E-01
   maximum displ.:     0.5664046 α      in ANC's #35, #48, #51, ...

........................................................................
.............................. CYCLE   10 ..............................
........................................................................

 iter      E             dE          RMSdq      gap      omega  full diag
   1    -67.5491941 -0.675492E+02  0.411E-01    3.79       0.0  T
   2    -67.5499928 -0.798732E-03  0.235E-01    3.84       1.0  T
   3    -67.5499601  0.327391E-04  0.112E-01    3.80       1.0  T
   4    -67.5501411 -0.180965E-03  0.179E-02    3.81       1.0  T
   5    -67.5501483 -0.720439E-05  0.568E-03    3.81       2.5  T
   6    -67.5501485 -0.208760E-06  0.301E-03    3.81       4.8  T
   7    -67.5501485 -0.307971E-07  0.979E-04    3.81      14.7  T
   8    -67.5501485 -0.123841E-07  0.449E-04    3.81      32.2  T
     SCC iter.                  ...        0 min,  0.134 sec
     gradient                   ...        0 min,  0.099 sec
 * total energy  :   -66.9745566 Eh     change       -0.5568786E-01 Eh
   gradient norm :     0.1118110 Eh/α   predicted    -0.5519537E-01 (  -0.88%)
   displ. norm   :     0.8104908 α      lambda       -0.5419308E-01
   maximum displ.:     0.5321859 α      in ANC's #35, #48, #34, ...

........................................................................
.............................. CYCLE   11 ..............................
........................................................................

 iter      E             dE          RMSdq      gap      omega  full diag
   1    -67.6272161 -0.676272E+02  0.409E-01    4.34       0.0  T
   2    -67.6276627 -0.446567E-03  0.225E-01    4.37       1.0  T
   3    -67.6276778 -0.150726E-04  0.500E-02    4.41       1.0  T
   4    -67.6276855 -0.770618E-05  0.125E-02    4.41       1.2  T
   5    -67.6276894 -0.397462E-05  0.486E-03    4.41       3.0  T
   6    -67.6276895 -0.238850E-07  0.211E-03    4.41       6.8  T
   7    -67.6276895 -0.391044E-07  0.513E-04    4.41      28.1  T
   8    -67.6276895 -0.149987E-08  0.313E-04    4.41      46.2  T
     SCC iter.                  ...        0 min,  0.068 sec
     gradient                   ...        0 min,  0.048 sec
 * total energy  :   -67.0170767 Eh     change       -0.4252012E-01 Eh
   gradient norm :     0.0997940 Eh/α   predicted    -0.4489614E-01 (   5.59%)
   displ. norm   :     0.8491061 α      lambda       -0.4636563E-01
   maximum displ.:     0.6695231 α      in ANC's #35, #48, #51, ...

........................................................................
.............................. CYCLE   12 ..............................
........................................................................

 iter      E             dE          RMSdq      gap      omega  full diag
   1    -67.6490447 -0.676490E+02  0.292E-01    4.38       0.0  T
   2    -67.6499259 -0.881263E-03  0.176E-01    4.56       1.0  T
   3    -67.6500608 -0.134926E-03  0.948E-02    4.53       1.0  T
   4    -67.6501104 -0.495839E-04  0.125E-02    4.59       1.2  T
   5    -67.6501124 -0.194784E-05  0.690E-03    4.58       2.1  T
   6    -67.6501126 -0.197422E-06  0.270E-03    4.58       5.4  T
   7    -67.6501126 -0.253237E-07  0.936E-04    4.58      15.4  T
   8    -67.6501126 -0.369916E-08  0.430E-04    4.58      33.6  T
     SCC iter.                  ...        0 min,  0.125 sec
     gradient                   ...        0 min,  0.063 sec
 * total energy  :   -67.0545545 Eh     change       -0.3747783E-01 Eh
   gradient norm :     0.0838620 Eh/α   predicted    -0.3989721E-01 (   6.46%)
   displ. norm   :     0.8046247 α      lambda       -0.3696238E-01
   maximum displ.:     0.6144439 α      in ANC's #35, #34, #48, ...

........................................................................
.............................. CYCLE   13 ..............................
........................................................................

 iter      E             dE          RMSdq      gap      omega  full diag
   1    -67.6858890 -0.676859E+02  0.205E-01    4.45       0.0  T
   2    -67.6861037 -0.214677E-03  0.120E-01    4.49       1.0  T
   3    -67.6861017  0.205230E-05  0.481E-02    4.48       1.0  T
   4    -67.6861234 -0.216952E-04  0.950E-03    4.50       1.5  T
   5    -67.6861251 -0.173381E-05  0.357E-03    4.50       4.0  T
   6    -67.6861252 -0.609657E-07  0.185E-03    4.50       7.8  T
   7    -67.6861252 -0.576564E-08  0.359E-04    4.50      40.2  T
   8    -67.6861252 -0.640171E-09  0.178E-04    4.50      81.0  T
     SCC iter.                  ...        0 min,  0.073 sec
     gradient                   ...        0 min,  0.049 sec
 * total energy  :   -67.0870721 Eh     change       -0.3251756E-01 Eh
   gradient norm :     0.0726380 Eh/α   predicted    -0.3044628E-01 (  -6.37%)
   displ. norm   :     0.8611182 α      lambda       -0.3898733E-01
   maximum displ.:     0.6563599 α      in ANC's #35, #61, #34, ...

........................................................................
.............................. CYCLE   14 ..............................
........................................................................

 iter      E             dE          RMSdq      gap      omega  full diag
   1    -67.7293849 -0.677294E+02  0.262E-01    4.72       0.0  T
   2    -67.7297076 -0.322726E-03  0.147E-01    4.66       1.0  T
   3    -67.7297158 -0.817235E-05  0.456E-02    4.65       1.0  T
   4    -67.7297196 -0.385408E-05  0.968E-03    4.64       1.5  T
   5    -67.7297220 -0.240216E-05  0.336E-03    4.65       4.3  T
   6    -67.7297221 -0.262463E-07  0.145E-03    4.65       9.9  T
   7    -67.7297221 -0.930450E-08  0.306E-04    4.65      47.2  T
   8    -67.7297221 -0.542286E-09  0.177E-04    4.65      81.8  T
     SCC iter.                  ...        0 min,  0.143 sec
     gradient                   ...        0 min,  0.084 sec
 * total energy  :   -67.1180893 Eh     change       -0.3101719E-01 Eh
   gradient norm :     0.0693183 Eh/α   predicted    -0.3394870E-01 (   9.45%)
   displ. norm   :     0.7896982 α      lambda       -0.3162196E-01
   maximum displ.:     0.5557726 α      in ANC's #35, #34, #61, ...

........................................................................
.............................. CYCLE   15 ..............................
........................................................................

 iter      E             dE          RMSdq      gap      omega  full diag
   1    -67.7659316 -0.677659E+02  0.243E-01    4.60       0.0  T
   2    -67.7660332 -0.101600E-03  0.148E-01    4.61       1.0  T
   3    -67.7660356 -0.237623E-05  0.212E-02    4.63       1.0  T
   4    -67.7660409 -0.533508E-05  0.674E-03    4.63       2.1  T
   5    -67.7660411 -0.209072E-06  0.394E-03    4.63       3.7  T
   6    -67.7660411 -0.406441E-07  0.932E-04    4.63      15.5  T
   7    -67.7660412 -0.959015E-08  0.451E-04    4.63      32.0  T
     SCC iter.                  ...        0 min,  0.120 sec
     gradient                   ...        0 min,  0.048 sec
 * total energy  :   -67.1416495 Eh     change       -0.2356018E-01 Eh
   gradient norm :     0.0702218 Eh/α   predicted    -0.2567107E-01 (   8.96%)
   displ. norm   :     0.7768182 α      lambda       -0.2178864E-01
   maximum displ.:     0.6733750 α      in ANC's #35, #34, #61, ...

........................................................................
.............................. CYCLE   16 ..............................
........................................................................

 iter      E             dE          RMSdq      gap      omega  full diag
   1    -67.7768524 -0.677769E+02  0.192E-01    4.52       0.0  T
   2    -67.7769520 -0.996093E-04  0.114E-01    4.56       1.0  T
   3    -67.7769544 -0.241495E-05  0.242E-02    4.56       1.0  T
   4    -67.7769573 -0.295624E-05  0.548E-03    4.56       2.6  T
   5    -67.7769578 -0.444945E-06  0.296E-03    4.56       4.9  T
   6    -67.7769578 -0.268255E-07  0.123E-03    4.56      11.8  T
   7    -67.7769578 -0.111210E-07  0.331E-04    4.56      43.6  T
   8    -67.7769578 -0.505011E-09  0.178E-04    4.56      80.9  T
     SCC iter.                  ...        0 min,  0.107 sec
     gradient                   ...        0 min,  0.051 sec
 * total energy  :   -67.1590178 Eh     change       -0.1736830E-01 Eh
   gradient norm :     0.0776639 Eh/α   predicted    -0.1746847E-01 (   0.58%)
   displ. norm   :     0.7456344 α      lambda       -0.2014309E-01
   maximum displ.:     0.5671659 α      in ANC's #35, #34, #61, ...

........................................................................
.............................. CYCLE   17 ..............................
........................................................................

 iter      E             dE          RMSdq      gap      omega  full diag
   1    -67.8050389 -0.678050E+02  0.255E-01    4.65       0.0  T
   2    -67.8051473 -0.108429E-03  0.147E-01    4.66       1.0  T
   3    -67.8051502 -0.288933E-05  0.239E-02    4.64       1.0  T
   4    -67.8051523 -0.210571E-05  0.470E-03    4.65       3.1  T
   5    -67.8051527 -0.422556E-06  0.230E-03    4.64       6.3  T
   6    -67.8051527 -0.106372E-07  0.784E-04    4.64      18.4  T
   7    -67.8051527 -0.322714E-08  0.256E-04    4.64      56.3  T
     SCC iter.                  ...        0 min,  0.086 sec
     gradient                   ...        0 min,  0.080 sec
 * total energy  :   -67.1738520 Eh     change       -0.1483422E-01 Eh
   gradient norm :     0.0525969 Eh/α   predicted    -0.1567104E-01 (   5.64%)
   displ. norm   :     0.7473836 α      lambda       -0.1669005E-01
   maximum displ.:     0.5764144 α      in ANC's #35, #61, #97, ...

........................................................................
.............................. CYCLE   18 ..............................
........................................................................

 iter      E             dE          RMSdq      gap      omega  full diag
   1    -67.8255742 -0.678256E+02  0.231E-01    4.64       0.0  T
   2    -67.8258297 -0.255514E-03  0.126E-01    4.66       1.0  T
   3    -67.8258427 -0.130634E-04  0.410E-02    4.67       1.0  T
   4    -67.8258461 -0.333191E-05  0.811E-03    4.67       1.8  T
   5    -67.8258467 -0.647810E-06  0.511E-03    4.67       2.8  T
   6    -67.8258468 -0.133762E-06  0.164E-03    4.67       8.8  T
   7    -67.8258469 -0.270356E-07  0.507E-04    4.67      28.5  T
   8    -67.8258469 -0.716625E-09  0.191E-04    4.67      75.4  T
     SCC iter.                  ...        0 min,  0.146 sec
     gradient                   ...        0 min,  0.051 sec
 * total energy  :   -67.1817696 Eh     change       -0.7917561E-02 Eh
   gradient norm :     0.0621176 Eh/α   predicted    -0.1300641E-01 (  64.27%)
   displ. norm   :     0.6604991 α      lambda       -0.1360086E-01
   maximum displ.:     0.4738021 α      in ANC's #35, #11, #15, ...

........................................................................
.............................. CYCLE   19 ..............................
........................................................................

 iter      E             dE          RMSdq      gap      omega  full diag
   1    -67.8300614 -0.678301E+02  0.223E-01    4.67       0.0  T
   2    -67.8301477 -0.862604E-04  0.128E-01    4.69       1.0  T
   3    -67.8301547 -0.705741E-05  0.222E-02    4.69       1.0  T
   4    -67.8301565 -0.172206E-05  0.590E-03    4.69       2.4  T
   5    -67.8301566 -0.169555E-06  0.368E-03    4.69       3.9  T
   6    -67.8301567 -0.662888E-07  0.888E-04    4.69      16.2  T
   7    -67.8301567 -0.103159E-07  0.406E-04    4.69      35.5  T
     SCC iter.                  ...        0 min,  0.054 sec
     gradient                   ...        0 min,  0.048 sec
 * total energy  :   -67.1829821 Eh     change       -0.1212538E-02 Eh
   gradient norm :     0.0847581 Eh/α   predicted    -0.9767182E-02 ( 705.52%)
   displ. norm   :     0.3404351 α      lambda       -0.1234701E-01
   maximum displ.:     0.1439578 α      in ANC's #35, #11, #13, ...

........................................................................
.............................. CYCLE   20 ..............................
........................................................................

 iter      E             dE          RMSdq      gap      omega  full diag
   1    -67.8360530 -0.678361E+02  0.182E-01    4.81       0.0  T
   2    -67.8361039 -0.508193E-04  0.105E-01    4.79       1.0  T
   3    -67.8361073 -0.348478E-05  0.190E-02    4.78       1.0  T
   4    -67.8361099 -0.257906E-05  0.555E-03    4.77       2.6  T
   5    -67.8361101 -0.186103E-06  0.329E-03    4.77       4.4  T
   6    -67.8361102 -0.500220E-07  0.118E-03    4.77      12.3  T
   7    -67.8361102 -0.125301E-07  0.382E-04    4.77      37.8  T
   8    -67.8361102 -0.451834E-09  0.191E-04    4.77      75.4  T
     SCC iter.                  ...        0 min,  0.068 sec
     gradient                   ...        0 min,  0.048 sec
 * total energy  :   -67.1883917 Eh     change       -0.5409577E-02 Eh
   gradient norm :     0.0352368 Eh/α   predicted    -0.6888984E-02 (  27.35%)
   displ. norm   :     0.3960580 α      lambda       -0.6212303E-02
   maximum displ.:     0.1871992 α      in ANC's #33, #48, #24, ...
 * RMSD in coord.:     1.5145925 α      energy gain  -0.1416305E+01 Eh

generating ANC from exact Hessian ...
Using Lindh-Hessian (1995)
 Shifting diagonal of input Hessian by    1.0340780935831011E-002
 Lowest  eigenvalues of input Hessian
    0.010000    0.010014    0.010039    0.000000    0.000000    0.000000
    0.000000    0.000000    0.010351    0.000000    0.010363    0.010504
    0.010748    0.010765    0.010915    0.010943    0.010948    0.011157
 Highest eigenvalues
    1.427295    1.432030    1.434922    1.435786    1.760521    2.339286


........................................................................
.............................. CYCLE   21 ..............................
........................................................................

 iter      E             dE          RMSdq      gap      omega  full diag
   1    -67.8365315 -0.678365E+02  0.186E-01    4.70       0.0  T
   2    -67.8365508 -0.192607E-04  0.110E-01    4.72       1.0  T
   3    -67.8365513 -0.554155E-06  0.118E-02    4.73       1.2  T
   4    -67.8365541 -0.272639E-05  0.428E-03    4.74       3.4  T
   5    -67.8365542 -0.977292E-07  0.223E-03    4.73       6.5  T
   6    -67.8365542 -0.110778E-07  0.553E-04    4.73      26.1  T
   7    -67.8365542 -0.169425E-08  0.182E-04    4.73      79.5  T
     SCC iter.                  ...        0 min,  0.124 sec
     gradient                   ...        0 min,  0.103 sec
 * total energy  :   -67.1866551 Eh     change        0.1736610E-02 Eh
   gradient norm :     0.0692578 Eh/α   predicted     0.0000000E+00 (-100.00%)
   displ. norm   :     0.2923449 α      lambda       -0.8599728E-02
   maximum displ.:     0.1547206 α      in ANC's #33, #11, #26, ...

........................................................................
.............................. CYCLE   22 ..............................
........................................................................

 iter      E             dE          RMSdq      gap      omega  full diag
   1    -67.8456451 -0.678456E+02  0.130E-01    4.80       0.0  T
   2    -67.8456522 -0.711097E-05  0.764E-02    4.79       1.0  T
   3    -67.8456523 -0.916427E-07  0.775E-03    4.79       1.9  T
   4    -67.8456536 -0.131916E-05  0.258E-03    4.78       5.6  T
   5    -67.8456536 -0.230089E-07  0.135E-03    4.78      10.7  T
   6    -67.8456536 -0.318803E-08  0.281E-04    4.78      51.3  T
   7    -67.8456536 -0.539643E-09  0.104E-04    4.78     138.2  T
     SCC iter.                  ...        0 min,  0.132 sec
     gradient                   ...        0 min,  0.088 sec
 * total energy  :   -67.1923824 Eh     change       -0.5727381E-02 Eh
   gradient norm :     0.0259851 Eh/α   predicted    -0.4668430E-02 ( -18.49%)
   displ. norm   :     0.3561427 α      lambda       -0.3036862E-02
   maximum displ.:     0.1967510 α      in ANC's #33, #11, #26, ...

........................................................................
.............................. CYCLE   23 ..............................
........................................................................

 iter      E             dE          RMSdq      gap      omega  full diag
   1    -67.8488041 -0.678488E+02  0.686E-02    4.76       0.0  T
   2    -67.8488080 -0.382643E-05  0.411E-02    4.76       1.0  T
   3    -67.8488085 -0.545537E-06  0.398E-03    4.76       3.6  T
   4    -67.8488087 -0.152936E-06  0.196E-03    4.77       7.4  T
   5    -67.8488087 -0.869221E-08  0.842E-04    4.77      17.1  T
   6    -67.8488087 -0.252165E-08  0.207E-04    4.77      69.8  T
     SCC iter.                  ...        0 min,  0.111 sec
     gradient                   ...        0 min,  0.044 sec
 * total energy  :   -67.1944217 Eh     change       -0.2039257E-02 Eh
   gradient norm :     0.0143737 Eh/α   predicted    -0.1711027E-02 ( -16.10%)
   displ. norm   :     0.3748299 α      lambda       -0.1395277E-02
   maximum displ.:     0.2062188 α      in ANC's #11, #33, #26, ...

........................................................................
.............................. CYCLE   24 ..............................
........................................................................

 iter      E             dE          RMSdq      gap      omega  full diag
   1    -67.8483257 -0.678483E+02  0.575E-02    4.75       0.0  T
   2    -67.8483297 -0.398220E-05  0.345E-02    4.75       1.0  T
   3    -67.8483304 -0.661128E-06  0.436E-03    4.75       3.3  T
   4    -67.8483305 -0.107117E-06  0.184E-03    4.75       7.9  T
   5    -67.8483305 -0.107827E-07  0.980E-04    4.75      14.7  T
   6    -67.8483305 -0.385454E-08  0.190E-04    4.75      75.8  T
     SCC iter.                  ...        0 min,  0.114 sec
     gradient                   ...        0 min,  0.061 sec
 * total energy  :   -67.1955105 Eh     change       -0.1088828E-02 Eh
   gradient norm :     0.0200848 Eh/α   predicted    -0.7956724E-03 ( -26.92%)
   displ. norm   :     0.4861795 α      lambda       -0.1514346E-02
   maximum displ.:     0.2859338 α      in ANC's #11, #26, #5, ...

........................................................................
.............................. CYCLE   25 ..............................
........................................................................

 iter      E             dE          RMSdq      gap      omega  full diag
   1    -67.8479448 -0.678479E+02  0.690E-02    4.78       0.0  T
   2    -67.8479522 -0.745544E-05  0.417E-02    4.78       1.0  T
   3    -67.8479530 -0.772061E-06  0.843E-03    4.78       1.7  T
   4    -67.8479540 -0.941729E-06  0.296E-03    4.78       4.9  T
   5    -67.8479540 -0.641173E-07  0.168E-03    4.78       8.6  T
   6    -67.8479540 -0.115222E-07  0.368E-04    4.78      39.2  T
   7    -67.8479540 -0.819142E-09  0.178E-04    4.78      81.3  T
     SCC iter.                  ...        0 min,  0.060 sec
     gradient                   ...        0 min,  0.088 sec
 * total energy  :   -67.1967084 Eh     change       -0.1197863E-02 Eh
   gradient norm :     0.0174535 Eh/α   predicted    -0.9361596E-03 ( -21.85%)
   displ. norm   :     0.5221165 α      lambda       -0.1440545E-02
   maximum displ.:     0.3349683 α      in ANC's #11, #5, #26, ...

........................................................................
.............................. CYCLE   26 ..............................
........................................................................

 iter      E             dE          RMSdq      gap      omega  full diag
   1    -67.8501937 -0.678502E+02  0.685E-02    4.85       0.0  T
   2    -67.8502049 -0.112341E-04  0.414E-02    4.84       1.0  T
   3    -67.8502053 -0.344240E-06  0.118E-02    4.85       1.2  T
   4    -67.8502071 -0.181754E-05  0.304E-03    4.84       4.7  T
   5    -67.8502072 -0.603393E-07  0.161E-03    4.84       8.9  T
   6    -67.8502072 -0.117647E-07  0.397E-04    4.84      36.4  T
   7    -67.8502072 -0.115016E-08  0.190E-04    4.84      75.8  T
     SCC iter.                  ...        0 min,  0.088 sec
     gradient                   ...        0 min,  0.116 sec
 * total energy  :   -67.1978297 Eh     change       -0.1121293E-02 Eh
   gradient norm :     0.0081939 Eh/α   predicted    -0.9166273E-03 ( -18.25%)
   displ. norm   :     0.6024581 α      lambda       -0.1263544E-02
   maximum displ.:     0.4080945 α      in ANC's #11, #5, #26, ...

........................................................................
.............................. CYCLE   27 ..............................
........................................................................

 iter      E             dE          RMSdq      gap      omega  full diag
   1    -67.8492714 -0.678493E+02  0.872E-02    4.88       0.0  T
   2    -67.8492835 -0.120198E-04  0.528E-02    4.88       1.0  T
   3    -67.8492850 -0.152653E-05  0.100E-02    4.88       1.4  T
   4    -67.8492862 -0.119751E-05  0.391E-03    4.88       3.7  T
   5    -67.8492863 -0.908557E-07  0.226E-03    4.88       6.4  T
   6    -67.8492863 -0.125469E-07  0.619E-04    4.88      23.3  T
   7    -67.8492863 -0.188935E-08  0.219E-04    4.88      65.8  T
     SCC iter.                  ...        0 min,  0.158 sec
     gradient                   ...        0 min,  0.100 sec
 * total energy  :   -67.1987985 Eh     change       -0.9688140E-03 Eh
   gradient norm :     0.0181141 Eh/α   predicted    -0.8610797E-03 ( -11.12%)
   displ. norm   :     0.6271761 α      lambda       -0.1463605E-02
   maximum displ.:     0.4454947 α      in ANC's #11, #5, #4, ...

........................................................................
.............................. CYCLE   28 ..............................
........................................................................

 iter      E             dE          RMSdq      gap      omega  full diag
   1    -67.8538563 -0.678539E+02  0.809E-02    4.92       0.0  T
   2    -67.8538629 -0.653041E-05  0.480E-02    4.91       1.0  T
   3    -67.8538638 -0.900222E-06  0.700E-03    4.91       2.1  T
   4    -67.8538644 -0.631243E-06  0.294E-03    4.91       4.9  T
   5    -67.8538645 -0.517078E-07  0.142E-03    4.91      10.2  T
   6    -67.8538645 -0.753062E-08  0.449E-04    4.91      32.2  T
   7    -67.8538645 -0.106603E-08  0.167E-04    4.91      86.7  T
     SCC iter.                  ...        0 min,  0.203 sec
     gradient                   ...        0 min,  0.128 sec
 * total energy  :   -67.1998947 Eh     change       -0.1096196E-02 Eh
   gradient norm :     0.0175199 Eh/α   predicted    -0.1019657E-02 (  -6.98%)
   displ. norm   :     0.6466008 α      lambda       -0.1283115E-02
   maximum displ.:     0.4682891 α      in ANC's #11, #5, #4, ...

........................................................................
.............................. CYCLE   29 ..............................
........................................................................

 iter      E             dE          RMSdq      gap      omega  full diag
   1    -67.8538150 -0.678538E+02  0.736E-02    4.89       0.0  T
   2    -67.8538194 -0.439273E-05  0.445E-02    4.89       1.0  T
   3    -67.8538202 -0.879070E-06  0.543E-03    4.89       2.7  T
   4    -67.8538206 -0.354596E-06  0.303E-03    4.89       4.8  T
   5    -67.8538206 -0.188145E-07  0.127E-03    4.89      11.4  T
   6    -67.8538206 -0.668921E-08  0.333E-04    4.89      43.3  T
   7    -67.8538206 -0.565365E-09  0.126E-04    4.89     114.8  T
     SCC iter.                  ...        0 min,  1.342 sec
     gradient                   ...        0 min,  0.099 sec
 * total energy  :   -67.2010343 Eh     change       -0.1139621E-02 Eh
   gradient norm :     0.0132636 Eh/α   predicted    -0.9097891E-03 ( -20.17%)
   displ. norm   :     0.6861202 α      lambda       -0.1528502E-02
   maximum displ.:     0.4999677 α      in ANC's #11, #5, #4, ...

........................................................................
.............................. CYCLE   30 ..............................
........................................................................

 iter      E             dE          RMSdq      gap      omega  full diag
   1    -67.8561531 -0.678562E+02  0.934E-02    4.95       0.0  T
   2    -67.8561624 -0.929164E-05  0.561E-02    4.94       1.0  T
   3    -67.8561637 -0.137706E-05  0.788E-03    4.94       1.8  T
   4    -67.8561642 -0.476994E-06  0.425E-03    4.93       3.4  T
   5    -67.8561643 -0.370171E-07  0.237E-03    4.94       6.1  T
   6    -67.8561643 -0.712110E-08  0.537E-04    4.94      26.9  T
   7    -67.8561643 -0.254717E-08  0.153E-04    4.94      94.4  T
     SCC iter.                  ...        0 min,  1.434 sec
     gradient                   ...        0 min,  0.083 sec
 * total energy  :   -67.2021699 Eh     change       -0.1135605E-02 Eh
   gradient norm :     0.0196605 Eh/α   predicted    -0.1124032E-02 (  -1.02%)
   displ. norm   :     0.7360451 α      lambda       -0.1613881E-02
   maximum displ.:     0.5553187 α      in ANC's #11, #4, #5, ...

........................................................................
.............................. CYCLE   31 ..............................
........................................................................

 iter      E             dE          RMSdq      gap      omega  full diag
   1    -67.8514046 -0.678514E+02  0.114E-01    4.77       0.0  T
   2    -67.8514310 -0.264798E-04  0.679E-02    4.80       1.0  T
   3    -67.8514288  0.218303E-05  0.194E-02    4.79       1.0  T
   4    -67.8514352 -0.639877E-05  0.385E-03    4.80       3.7  T
   5    -67.8514353 -0.363191E-07  0.190E-03    4.80       7.6  T
   6    -67.8514353 -0.890644E-08  0.611E-04    4.80      23.6  T
   7    -67.8514353 -0.118852E-08  0.226E-04    4.80      63.9  T
     SCC iter.                  ...        0 min,  0.177 sec
     gradient                   ...        0 min,  0.100 sec
 * total energy  :   -67.2032279 Eh     change       -0.1057968E-02 Eh
   gradient norm :     0.0183857 Eh/α   predicted    -0.1244116E-02 (  17.59%)
   displ. norm   :     0.6089825 α      lambda       -0.1200576E-02
   maximum displ.:     0.4308337 α      in ANC's #11, #4, #5, ...

........................................................................
.............................. CYCLE   32 ..............................
........................................................................

 iter      E             dE          RMSdq      gap      omega  full diag
   1    -67.8504501 -0.678505E+02  0.773E-02    4.80       0.0  T
   2    -67.8504558 -0.575208E-05  0.456E-02    4.80       1.0  T
   3    -67.8504570 -0.116618E-05  0.606E-03    4.80       2.4  T
   4    -67.8504572 -0.185667E-06  0.291E-03    4.80       5.0  T
   5    -67.8504572 -0.248797E-07  0.163E-03    4.80       8.9  T
   6    -67.8504572 -0.216835E-08  0.492E-04    4.80      29.4  T
   7    -67.8504572 -0.299517E-08  0.127E-04    4.80     113.9  T
     SCC iter.                  ...        0 min,  0.208 sec
     gradient                   ...        0 min,  0.090 sec
 * total energy  :   -67.2041140 Eh     change       -0.8860649E-03 Eh
   gradient norm :     0.0177094 Eh/α   predicted    -0.8229145E-03 (  -7.13%)
   displ. norm   :     0.6135784 α      lambda       -0.1685205E-02
   maximum displ.:     0.3588819 α      in ANC's #11, #4, #26, ...

........................................................................
.............................. CYCLE   33 ..............................
........................................................................

 iter      E             dE          RMSdq      gap      omega  full diag
   1    -67.8670171 -0.678670E+02  0.944E-02    5.00       0.0  T
   2    -67.8670479 -0.307687E-04  0.575E-02    4.97       1.0  T
   3    -67.8670478  0.148120E-07  0.203E-02    4.98       1.0  T
   4    -67.8670527 -0.486561E-05  0.404E-03    4.97       3.6  T
   5    -67.8670527 -0.465255E-07  0.181E-03    4.97       8.0  T
   6    -67.8670528 -0.673377E-08  0.735E-04    4.97      19.6  T
   7    -67.8670528 -0.150334E-08  0.158E-04    4.97      91.2  T
     SCC iter.                  ...        0 min,  0.429 sec
     gradient                   ...        0 min,  0.093 sec
 * total energy  :   -67.2042943 Eh     change       -0.1803604E-03 Eh
   gradient norm :     0.0380077 Eh/α   predicted    -0.1159829E-02 ( 543.06%)
   displ. norm   :     0.4160625 α      lambda       -0.2509186E-02
   maximum displ.:     0.2391488 α      in ANC's #11, #4, #2, ...

........................................................................
.............................. CYCLE   34 ..............................
........................................................................

 iter      E             dE          RMSdq      gap      omega  full diag
   1    -67.8538992 -0.678539E+02  0.964E-02    4.87       0.0  T
   2    -67.8539170 -0.178095E-04  0.574E-02    4.89       1.0  T
   3    -67.8539188 -0.177508E-05  0.122E-02    4.89       1.2  T
   4    -67.8539207 -0.191937E-05  0.477E-03    4.90       3.0  T
   5    -67.8539208 -0.113201E-06  0.237E-03    4.90       6.1  T
   6    -67.8539208 -0.108868E-07  0.100E-03    4.90      14.4  T
   7    -67.8539208 -0.293461E-08  0.200E-04    4.90      72.1  T
     SCC iter.                  ...        0 min,  0.447 sec
     gradient                   ...        0 min,  0.088 sec
 * total energy  :   -67.2055185 Eh     change       -0.1224135E-02 Eh
   gradient norm :     0.0221576 Eh/α   predicted    -0.1471776E-02 (  20.23%)
   displ. norm   :     0.3381672 α      lambda       -0.1880978E-02
   maximum displ.:     0.1466583 α      in ANC's #11, #4, #2, ...

........................................................................
.............................. CYCLE   35 ..............................
........................................................................

 iter      E             dE          RMSdq      gap      omega  full diag
   1    -67.8586441 -0.678586E+02  0.122E-01    4.70       0.0  T
   2    -67.8586758 -0.316550E-04  0.727E-02    4.73       1.0  T
   3    -67.8586757  0.816758E-07  0.209E-02    4.72       1.0  T
   4    -67.8586833 -0.756099E-05  0.640E-03    4.74       2.3  T
   5    -67.8586834 -0.155326E-06  0.291E-03    4.73       5.0  T
   6    -67.8586834 -0.174576E-07  0.123E-03    4.73      11.8  T
   7    -67.8586835 -0.371125E-08  0.291E-04    4.73      49.6  T
   8    -67.8586835 -0.138840E-09  0.123E-04    4.73     117.3  T
     SCC iter.                  ...        0 min,  0.101 sec
     gradient                   ...        0 min,  0.088 sec
 * total energy  :   -67.2050870 Eh     change        0.4314110E-03 Eh
   gradient norm :     0.0449060 Eh/α   predicted    -0.1048041E-02 (-342.93%)
   displ. norm   :     0.2908120 α      lambda       -0.2523067E-02
   maximum displ.:     0.1371884 α      in ANC's #11, #22, #4, ...

........................................................................
.............................. CYCLE   36 ..............................
........................................................................

 iter      E             dE          RMSdq      gap      omega  full diag
   1    -67.8562490 -0.678562E+02  0.918E-02    4.78       0.0  T
   2    -67.8562559 -0.684622E-05  0.545E-02    4.77       1.0  T
   3    -67.8562581 -0.224504E-05  0.787E-03    4.77       1.8  T
   4    -67.8562587 -0.575056E-06  0.422E-03    4.77       3.4  T
   5    -67.8562588 -0.943377E-07  0.192E-03    4.77       7.5  T
   6    -67.8562588 -0.828484E-08  0.495E-04    4.77      29.2  T
   7    -67.8562588 -0.946798E-09  0.189E-04    4.77      76.4  T
     SCC iter.                  ...        0 min,  0.073 sec
     gradient                   ...        0 min,  0.048 sec
 * total energy  :   -67.2063967 Eh     change       -0.1309655E-02 Eh
   gradient norm :     0.0192102 Eh/α   predicted    -0.1368225E-02 (   4.47%)
   displ. norm   :     0.4346434 α      lambda       -0.1208469E-02
   maximum displ.:     0.2065425 α      in ANC's #11, #4, #2, ...

........................................................................
.............................. CYCLE   37 ..............................
........................................................................

 iter      E             dE          RMSdq      gap      omega  full diag
   1    -67.8538332 -0.678538E+02  0.902E-02    4.99       0.0  T
   2    -67.8538678 -0.345412E-04  0.548E-02    4.96       1.0  T
   3    -67.8538686 -0.817253E-06  0.210E-02    4.97       1.0  T
   4    -67.8538731 -0.452532E-05  0.400E-03    4.96       3.6  T
   5    -67.8538732 -0.552172E-07  0.220E-03    4.96       6.6  T
   6    -67.8538732 -0.158150E-07  0.906E-04    4.96      15.9  T
   7    -67.8538732 -0.256883E-08  0.224E-04    4.96      64.4  T
     SCC iter.                  ...        0 min,  0.077 sec
     gradient                   ...        0 min,  0.092 sec
 * total energy  :   -67.2064674 Eh     change       -0.7074511E-04 Eh
   gradient norm :     0.0292832 Eh/α   predicted    -0.7183874E-03 ( 915.46%)
   displ. norm   :     0.2733913 α      lambda       -0.1527188E-02
   maximum displ.:     0.1226852 α      in ANC's #11, #2, #4, ...

........................................................................
.............................. CYCLE   38 ..............................
........................................................................

 iter      E             dE          RMSdq      gap      omega  full diag
   1    -67.8598936 -0.678599E+02  0.117E-01    4.86       0.0  T
   2    -67.8599024 -0.877443E-05  0.682E-02    4.88       1.0  T
   3    -67.8599026 -0.234214E-06  0.998E-03    4.88       1.4  T
   4    -67.8599047 -0.205551E-05  0.398E-03    4.88       3.6  T
   5    -67.8599047 -0.392745E-07  0.262E-03    4.88       5.5  T
   6    -67.8599047 -0.542194E-08  0.756E-04    4.88      19.1  T
   7    -67.8599047 -0.124037E-08  0.129E-04    4.88     112.0  T
     SCC iter.                  ...        0 min,  0.143 sec
     gradient                   ...        0 min,  0.052 sec
 * total energy  :   -67.2069566 Eh     change       -0.4891154E-03 Eh
   gradient norm :     0.0233925 Eh/α   predicted    -0.8206702E-03 (  67.79%)
   displ. norm   :     0.2615302 α      lambda       -0.1641748E-02
   maximum displ.:     0.1203691 α      in ANC's #24, #2, #4, ...

........................................................................
.............................. CYCLE   39 ..............................
........................................................................

 iter      E             dE          RMSdq      gap      omega  full diag
   1    -67.8583707 -0.678584E+02  0.100E-01    4.71       0.0  T
   2    -67.8583912 -0.205014E-04  0.592E-02    4.74       1.0  T
   3    -67.8583910  0.207935E-06  0.175E-02    4.73       1.0  T
   4    -67.8583961 -0.516097E-05  0.546E-03    4.74       2.6  T
   5    -67.8583962 -0.894987E-07  0.316E-03    4.74       4.6  T
   6    -67.8583962 -0.145957E-07  0.101E-03    4.74      14.3  T
   7    -67.8583963 -0.248333E-08  0.206E-04    4.74      70.2  T
   8    -67.8583963 -0.104350E-09  0.102E-04    4.74     141.1  T
     SCC iter.                  ...        0 min,  0.096 sec
     gradient                   ...        0 min,  0.041 sec
 * total energy  :   -67.2070476 Eh     change       -0.9107363E-04 Eh
   gradient norm :     0.0341992 Eh/α   predicted    -0.8770209E-03 ( 862.98%)
   displ. norm   :     0.2234828 α      lambda       -0.1372658E-02
   maximum displ.:     0.0923397 α      in ANC's #21, #11, #2, ...

........................................................................
.............................. CYCLE   40 ..............................
........................................................................

 iter      E             dE          RMSdq      gap      omega  full diag
   1    -67.8563280 -0.678563E+02  0.591E-02    4.83       0.0  T
   2    -67.8563339 -0.591319E-05  0.354E-02    4.82       1.0  T
   3    -67.8563342 -0.237338E-06  0.954E-03    4.82       1.5  T
   4    -67.8563356 -0.142488E-05  0.360E-03    4.81       4.0  T
   5    -67.8563356 -0.410277E-07  0.167E-03    4.81       8.7  T
   6    -67.8563357 -0.682734E-08  0.591E-04    4.81      24.4  T
   7    -67.8563357 -0.994191E-09  0.161E-04    4.81      89.9  T
     SCC iter.                  ...        0 min,  0.127 sec
     gradient                   ...        0 min,  0.053 sec
 * total energy  :   -67.2077472 Eh     change       -0.6995559E-03 Eh
   gradient norm :     0.0171760 Eh/α   predicted    -0.7206095E-03 (   3.01%)
   displ. norm   :     0.2759754 α      lambda       -0.1345697E-02
   maximum displ.:     0.1091271 α      in ANC's #2, #36, #14, ...

........................................................................
.............................. CYCLE   41 ..............................
........................................................................

 iter      E             dE          RMSdq      gap      omega  full diag
   1    -67.8640396 -0.678640E+02  0.105E-01    5.02       0.0  T
   2    -67.8640784 -0.388393E-04  0.635E-02    4.99       1.0  T
   3    -67.8640795 -0.114039E-05  0.231E-02    5.00       1.0  T
   4    -67.8640853 -0.577533E-05  0.543E-03    4.99       2.7  T
   5    -67.8640854 -0.887559E-07  0.266E-03    4.99       5.4  T
   6    -67.8640854 -0.157317E-07  0.712E-04    4.99      20.3  T
   7    -67.8640854 -0.171894E-08  0.287E-04    4.99      50.3  T
     SCC iter.                  ...        0 min,  0.115 sec
     gradient                   ...        0 min,  0.052 sec
 * total energy  :   -67.2071240 Eh     change        0.6231767E-03 Eh
   gradient norm :     0.0445740 Eh/α   predicted    -0.7240954E-03 (-216.19%)
   displ. norm   :     0.1857308 α      lambda       -0.2268902E-02
   maximum displ.:     0.0651038 α      in ANC's #24, #22, #2, ...

........................................................................
.............................. CYCLE   42 ..............................
........................................................................

 iter      E             dE          RMSdq      gap      omega  full diag
   1    -67.8630094 -0.678630E+02  0.689E-02    4.92       0.0  T
   2    -67.8630171 -0.770300E-05  0.415E-02    4.93       1.0  T
   3    -67.8630182 -0.114961E-05  0.953E-03    4.93       1.5  T
   4    -67.8630198 -0.153718E-05  0.367E-03    4.93       3.9  T
   5    -67.8630198 -0.564064E-07  0.171E-03    4.93       8.4  T
   6    -67.8630198 -0.651276E-08  0.509E-04    4.93      28.4  T
   7    -67.8630198 -0.738936E-09  0.151E-04    4.93      95.8  T
     SCC iter.                  ...        0 min,  0.125 sec
     gradient                   ...        0 min,  0.045 sec
 * total energy  :   -67.2082262 Eh     change       -0.1102228E-02 Eh
   gradient norm :     0.0171077 Eh/α   predicted    -0.1173590E-02 (   6.47%)
   displ. norm   :     0.4097913 α      lambda       -0.2010168E-02
   maximum displ.:     0.2162072 α      in ANC's #21, #11, #36, ...
 * RMSD in coord.:     1.1512755 α      energy gain  -0.1983456E-01 Eh

generating ANC from exact Hessian ...
Using Lindh-Hessian (1995)
 Shifting diagonal of input Hessian by    1.0334464859717377E-002
 Lowest  eigenvalues of input Hessian
    0.010000    0.010016    0.010032    0.000000    0.000000    0.000000
    0.000000    0.000000    0.000000    0.010362    0.010364    0.010583
    0.010635    0.010777    0.010812    0.010959    0.011037    0.011143
 Highest eigenvalues
    1.410815    1.416748    1.417246    1.462386    1.764757    2.275633


........................................................................
.............................. CYCLE   43 ..............................
........................................................................

 iter      E             dE          RMSdq      gap      omega  full diag
   1    -67.8451265 -0.678451E+02  0.138E-01    4.67       0.0  T
   2    -67.8451947 -0.682307E-04  0.851E-02    4.71       1.0  T
   3    -67.8451944  0.318897E-06  0.360E-02    4.69       1.0  T
   4    -67.8452069 -0.124958E-04  0.998E-03    4.71       1.4  T
   5    -67.8452070 -0.151902E-06  0.467E-03    4.71       3.1  T
   6    -67.8452071 -0.263563E-07  0.103E-03    4.71      14.0  T
   7    -67.8452071 -0.359773E-08  0.368E-04    4.71      39.2  T
   8    -67.8452071 -0.416833E-09  0.165E-04    4.71      87.4  T
     SCC iter.                  ...        0 min,  0.068 sec
     gradient                   ...        0 min,  0.048 sec
 * total energy  :   -67.2068075 Eh     change        0.1418735E-02 Eh
   gradient norm :     0.0523259 Eh/α   predicted     0.0000000E+00 (-100.00%)
   displ. norm   :     0.1615549 α      lambda       -0.3522200E-02
   maximum displ.:     0.0635611 α      in ANC's #35, #21, #32, ...

........................................................................
.............................. CYCLE   44 ..............................
........................................................................

 iter      E             dE          RMSdq      gap      omega  full diag
   1    -67.8579800 -0.678580E+02  0.721E-02    4.86       0.0  T
   2    -67.8579970 -0.169838E-04  0.459E-02    4.84       1.0  T
   3    -67.8579966  0.367523E-06  0.184E-02    4.84       1.0  T
   4    -67.8580001 -0.347159E-05  0.498E-03    4.83       2.9  T
   5    -67.8580001 -0.150797E-07  0.196E-03    4.84       7.4  T
   6    -67.8580001 -0.674657E-08  0.391E-04    4.84      37.0  T
   7    -67.8580001 -0.543324E-09  0.193E-04    4.84      74.9  T
     SCC iter.                  ...        0 min,  0.064 sec
     gradient                   ...        0 min,  0.048 sec
 * total energy  :   -67.2091902 Eh     change       -0.2382713E-02 Eh
   gradient norm :     0.0161010 Eh/α   predicted    -0.1807166E-02 ( -24.16%)
   displ. norm   :     0.2219839 α      lambda       -0.1103754E-02
   maximum displ.:     0.1141372 α      in ANC's #35, #21, #6, ...

........................................................................
.............................. CYCLE   45 ..............................
........................................................................

 iter      E             dE          RMSdq      gap      omega  full diag
   1    -67.8627784 -0.678628E+02  0.566E-02    4.90       0.0  T
   2    -67.8627830 -0.452844E-05  0.348E-02    4.89       1.0  T
   3    -67.8627826  0.388764E-06  0.896E-03    4.89       1.6  T
   4    -67.8627839 -0.129121E-05  0.275E-03    4.89       5.2  T
   5    -67.8627839 -0.121988E-07  0.114E-03    4.89      12.6  T
   6    -67.8627839 -0.194845E-08  0.214E-04    4.89      67.4  T
   7    -67.8627839 -0.189090E-09  0.958E-05    4.89     150.6  T
     SCC iter.                  ...        0 min,  0.123 sec
     gradient                   ...        0 min,  0.079 sec
 * total energy  :   -67.2099548 Eh     change       -0.7645384E-03 Eh
   gradient norm :     0.0078830 Eh/α   predicted    -0.5791835E-03 ( -24.24%)
   displ. norm   :     0.3716943 α      lambda       -0.9318488E-03
   maximum displ.:     0.1870556 α      in ANC's #35, #21, #25, ...

........................................................................
.............................. CYCLE   46 ..............................
........................................................................

 iter      E             dE          RMSdq      gap      omega  full diag
   1    -67.8609451 -0.678609E+02  0.899E-02    4.92       0.0  T
   2    -67.8609503 -0.518333E-05  0.539E-02    4.91       1.0  T
   3    -67.8609508 -0.587850E-06  0.619E-03    4.92       2.3  T
   4    -67.8609514 -0.582988E-06  0.256E-03    4.91       5.6  T
   5    -67.8609515 -0.347968E-07  0.127E-03    4.91      11.4  T
   6    -67.8609515 -0.307871E-08  0.403E-04    4.91      35.8  T
   7    -67.8609515 -0.493486E-09  0.114E-04    4.91     127.0  T
     SCC iter.                  ...        0 min,  0.072 sec
     gradient                   ...        0 min,  0.081 sec
 * total energy  :   -67.2106400 Eh     change       -0.6852442E-03 Eh
   gradient norm :     0.0222370 Eh/α   predicted    -0.5302980E-03 ( -22.61%)
   displ. norm   :     0.4957802 α      lambda       -0.1216894E-02
   maximum displ.:     0.2833062 α      in ANC's #35, #21, #25, ...

........................................................................
.............................. CYCLE   47 ..............................
........................................................................

 iter      E             dE          RMSdq      gap      omega  full diag
   1    -67.8559023 -0.678559E+02  0.102E-01    4.92       0.0  T
   2    -67.8559098 -0.750149E-05  0.609E-02    4.92       1.0  T
   3    -67.8559105 -0.732098E-06  0.610E-03    4.92       2.4  T
   4    -67.8559107 -0.164537E-06  0.229E-03    4.92       6.3  T
   5    -67.8559107 -0.105674E-07  0.108E-03    4.92      13.4  T
   6    -67.8559107 -0.408176E-08  0.343E-04    4.92      42.1  T
   7    -67.8559107 -0.619679E-09  0.145E-04    4.92      99.7  T
     SCC iter.                  ...        0 min,  0.070 sec
     gradient                   ...        0 min,  0.041 sec
 * total energy  :   -67.2114105 Eh     change       -0.7705313E-03 Eh
   gradient norm :     0.0247976 Eh/α   predicted    -0.7580073E-03 (  -1.63%)
   displ. norm   :     0.3389480 α      lambda       -0.1239954E-02
   maximum displ.:     0.1667228 α      in ANC's #21, #35, #22, ...

........................................................................
.............................. CYCLE   48 ..............................
........................................................................

 iter      E             dE          RMSdq      gap      omega  full diag
   1    -67.8558421 -0.678558E+02  0.771E-02    4.88       0.0  T
   2    -67.8558447 -0.256006E-05  0.469E-02    4.89       1.0  T
   3    -67.8558447 -0.132647E-07  0.646E-03    4.89       2.2  T
   4    -67.8558453 -0.598189E-06  0.328E-03    4.89       4.4  T
   5    -67.8558453 -0.700618E-08  0.101E-03    4.89      14.3  T
   6    -67.8558453 -0.469288E-08  0.211E-04    4.89      68.6  T
   7    -67.8558453 -0.171894E-09  0.116E-04    4.89     124.0  T
     SCC iter.                  ...        0 min,  0.116 sec
     gradient                   ...        0 min,  0.047 sec
 * total energy  :   -67.2122196 Eh     change       -0.8090296E-03 Eh
   gradient norm :     0.0181661 Eh/α   predicted    -0.6912221E-03 ( -14.56%)
   displ. norm   :     0.2608063 α      lambda       -0.1168084E-02
   maximum displ.:     0.0982302 α      in ANC's #35, #2, #13, ...

........................................................................
.............................. CYCLE   49 ..............................
........................................................................

 iter      E             dE          RMSdq      gap      omega  full diag
   1    -67.8664855 -0.678665E+02  0.668E-02    4.84       0.0  T
   2    -67.8664950 -0.949539E-05  0.395E-02    4.85       1.0  T
   3    -67.8664952 -0.222826E-06  0.108E-02    4.85       1.3  T
   4    -67.8664961 -0.874422E-06  0.373E-03    4.85       3.9  T
   5    -67.8664962 -0.485489E-07  0.177E-03    4.85       8.2  T
   6    -67.8664962 -0.618695E-08  0.308E-04    4.85      46.9  T
   7    -67.8664962 -0.496442E-09  0.116E-04    4.85     123.9  T
     SCC iter.                  ...        0 min,  0.116 sec
     gradient                   ...        0 min,  0.045 sec
 * total energy  :   -67.2126724 Eh     change       -0.4528407E-03 Eh
   gradient norm :     0.0154803 Eh/α   predicted    -0.6237727E-03 (  37.75%)
   displ. norm   :     0.5325344 α      lambda       -0.1394493E-02
   maximum displ.:     0.2719423 α      in ANC's #35, #21, #2, ...

........................................................................
.............................. CYCLE   50 ..............................
........................................................................

 iter      E             dE          RMSdq      gap      omega  full diag
   1    -67.8576913 -0.678577E+02  0.136E-01    4.85       0.0  T
   2    -67.8577064 -0.151237E-04  0.808E-02    4.85       1.0  T
   3    -67.8577097 -0.328857E-05  0.941E-03    4.85       1.5  T
   4    -67.8577103 -0.542475E-06  0.483E-03    4.85       3.0  T
   5    -67.8577103 -0.689131E-07  0.271E-03    4.85       5.3  T
   6    -67.8577103 -0.140370E-07  0.885E-04    4.85      16.3  T
   7    -67.8577103 -0.483814E-08  0.220E-04    4.85      65.6  T
     SCC iter.                  ...        0 min,  0.135 sec
     gradient                   ...        0 min,  0.091 sec
 * total energy  :   -67.2126285 Eh     change        0.4393693E-04 Eh
   gradient norm :     0.0358803 Eh/α   predicted    -0.8949825E-03 (*******%)
   displ. norm   :     0.1510992 α      lambda       -0.1992603E-02
   maximum displ.:     0.1075350 α      in ANC's #32, #11, #35, ...

........................................................................
.............................. CYCLE   51 ..............................
........................................................................

 iter      E             dE          RMSdq      gap      omega  full diag
   1    -67.8590801 -0.678591E+02  0.941E-02    4.88       0.0  T
   2    -67.8590889 -0.883307E-05  0.555E-02    4.88       1.0  T
   3    -67.8590908 -0.190183E-05  0.824E-03    4.88       1.8  T
   4    -67.8590914 -0.607847E-06  0.401E-03    4.88       3.6  T
   5    -67.8590915 -0.700053E-07  0.236E-03    4.88       6.1  T
   6    -67.8590915 -0.969841E-08  0.948E-04    4.88      15.2  T
   7    -67.8590915 -0.271878E-08  0.174E-04    4.88      82.9  T
     SCC iter.                  ...        0 min,  0.091 sec
     gradient                   ...        0 min,  0.054 sec
 * total energy  :   -67.2132904 Eh     change       -0.6619526E-03 Eh
   gradient norm :     0.0180914 Eh/α   predicted    -0.1019054E-02 (  53.95%)
   displ. norm   :     0.1813499 α      lambda       -0.8299770E-03
   maximum displ.:     0.1121102 α      in ANC's #35, #21, #33, ...

........................................................................
.............................. CYCLE   52 ..............................
........................................................................

 iter      E             dE          RMSdq      gap      omega  full diag
   1    -67.8694423 -0.678694E+02  0.627E-02    4.89       0.0  T
   2    -67.8694527 -0.103459E-04  0.358E-02    4.89       1.0  T
   3    -67.8694533 -0.614952E-06  0.913E-03    4.89       1.6  T
   4    -67.8694535 -0.163356E-06  0.289E-03    4.89       5.0  T
   5    -67.8694535 -0.137742E-07  0.153E-03    4.89       9.4  T
   6    -67.8694535 -0.556018E-08  0.332E-04    4.89      43.5  T
   7    -67.8694535 -0.824983E-09  0.141E-04    4.89     102.1  T
     SCC iter.                  ...        0 min,  0.095 sec
     gradient                   ...        0 min,  0.048 sec
 * total energy  :   -67.2134244 Eh     change       -0.1340284E-03 Eh
   gradient norm :     0.0106955 Eh/α   predicted    -0.4286374E-03 ( 219.81%)
[...]

          ...................................................
          :                      SETUP                      :
          :.................................................:
          :  # basis functions                 102          :
          :  # atomic orbitals                 102          :
          :  # shells                           66          :
          :  # electrons                       114          :
          :  max. iterations                   250          :
          :  Hamiltonian                  GFN2-xTB          :
          :  restarted?                      false          :
          :  GBSA solvation                   true          :
          :  PC potential                    false          :
          :  electronic temp.          300.0000000     K    :
          :  accuracy                    1.0000000          :
          :  -> integral cutoff          0.2500000E+02      :
          :  -> integral neglect         0.1000000E-07      :
          :  -> SCF convergence          0.1000000E-05 Eh   :
          :  -> wf. convergence          0.1000000E-03 e    :
          :  Broyden damping             0.4000000          :
          :  net charge                          2          :
          :  unpaired electrons                  0          :
          ...................................................

 iter      E             dE          RMSdq      gap      omega  full diag
   1    -67.8702097 -0.678702E+02  0.777E-05    4.90       0.0  T
   2    -67.8702097 -0.558487E-11  0.495E-05    4.90     291.9  T
   3    -67.8702097  0.136424E-11  0.119E-05    4.90    1213.6  T

   *** convergence criteria satisfied after 3 iterations ***

         #    Occupation            Energy/Eh            Energy/eV
      -------------------------------------------------------------
         1        2.0000           -0.7452585             -20.2795
       ...           ...                  ...                  ...
        51        2.0000           -0.4369940             -11.8912
        52        2.0000           -0.4295889             -11.6897
        53        2.0000           -0.4286411             -11.6639
        54        2.0000           -0.4271061             -11.6221
        55        2.0000           -0.4199800             -11.4282
        56        2.0000           -0.4165831             -11.3358
        57        2.0000           -0.4159965             -11.3198 (HOMO)
        58                         -0.2357653              -6.4155 (LUMO)
        59                         -0.1752973              -4.7701
        60                          0.0287416               0.7821
        61                          0.0300606               0.8180
        62                          0.0349691               0.9516
       ...                                ...                  ...
       102                          1.0169392              27.6723
      -------------------------------------------------------------
                  HL-Gap            0.1802313 Eh            4.9043 eV
             Fermi-level           -0.3258809 Eh           -8.8677 eV

 SCC (total)                   0 d,  0 h,  0 min,  0.790 sec
 SCC setup                      ...        0 min,  0.012 sec (  1.495%)
 Dispersion                     ...        0 min,  0.012 sec (  1.519%)
 classical contributions        ...        0 min,  0.006 sec (  0.742%)
 integral evaluation            ...        0 min,  0.034 sec (  4.262%)
 iterations                     ...        0 min,  0.585 sec ( 74.058%)
 molecular gradient             ...        0 min,  0.133 sec ( 16.894%)
 printout                       ...        0 min,  0.008 sec (  1.025%)

         :::::::::::::::::::::::::::::::::::::::::::::::::::::
         ::                     SUMMARY                     ::
         :::::::::::::::::::::::::::::::::::::::::::::::::::::
         :: total energy             -67.216964960074 Eh    ::
         :: total w/o Gsasa/hb       -67.132971960762 Eh    ::
         :: gradient norm              0.000217152918 Eh/a0 ::
         :: HOMO-LUMO gap              4.904342701975 eV    ::
         ::.................................................::
         :: SCC energy               -67.870300310874 Eh    ::
         :: -> isotropic ES            0.567026591934 Eh    ::
         :: -> anisotropic ES         -0.010418038003 Eh    ::
         :: -> anisotropic XC          0.014935989162 Eh    ::
         :: -> dispersion             -0.027626987353 Eh    ::
         :: -> Gsolv                  -0.384909146870 Eh    ::
         ::    -> Gelec               -0.300916147558 Eh    ::
         ::    -> Gsasa                0.001936052508 Eh    ::
         ::    -> Ghb                 -0.087009811519 Eh    ::
         ::    -> Gshift               0.001080759698 Eh    ::
         :: repulsion energy           0.653335350800 Eh    ::
         :: add. restraining           0.000000000000 Eh    ::
         :: total charge               2.000000000000 e     ::
         :::::::::::::::::::::::::::::::::::::::::::::::::::::

           -------------------------------------------------
          |                Property Printout                |
           -------------------------------------------------

    * Orbital Energies and Occupations

         #    Occupation            Energy/Eh            Energy/eV
      -------------------------------------------------------------
         1        2.0000           -0.7452585             -20.2795
       ...           ...                  ...                  ...
        45        2.0000           -0.4627732             -12.5927
        46        2.0000           -0.4623651             -12.5816
        47        2.0000           -0.4621858             -12.5767
        48        2.0000           -0.4601003             -12.5200
        49        2.0000           -0.4501555             -12.2494
        50        2.0000           -0.4468106             -12.1583
        51        2.0000           -0.4369940             -11.8912
        52        2.0000           -0.4295889             -11.6897
        53        2.0000           -0.4286411             -11.6639
        54        2.0000           -0.4271061             -11.6221
        55        2.0000           -0.4199800             -11.4282
        56        2.0000           -0.4165831             -11.3358
        57        2.0000           -0.4159965             -11.3198 (HOMO)
        58                         -0.2357653              -6.4155 (LUMO)
        59                         -0.1752973              -4.7701
        60                          0.0287416               0.7821
        61                          0.0300606               0.8180
        62                          0.0349691               0.9516
        63                          0.0370039               1.0069
        64                          0.0748755               2.0375
        65                          0.1066191               2.9013
        66                          0.1070732               2.9136
        67                          0.1145849               3.1180
        68                          0.1176588               3.2017
       ...                                ...                  ...
       102                          1.0169392              27.6723
      -------------------------------------------------------------
                  HL-Gap            0.1802313 Eh            4.9043 eV
             Fermi-level           -0.3258809 Eh           -8.8677 eV

     #   Z          covCN         q      C6AA      α(0)
     1   6 C        3.752    -0.110    22.671     6.790
     2   6 C        3.801    -0.058    21.620     6.620
     3   6 C        3.803    -0.063    21.707     6.633
     4   6 C        3.803    -0.063    21.717     6.635
     5   6 C        3.803    -0.063    21.701     6.632
     6   6 C        3.803    -0.066    21.772     6.643
     7   6 C        3.804    -0.060    21.646     6.624
     8   6 C        3.804    -0.104    22.481     6.750
     9   6 C        2.690     0.368    20.753     7.455
    10   8 O        0.856    -0.495    23.679     6.524
    11   8 O        1.659    -0.415    21.147     6.208
    12   1 H        0.803     0.430     0.434     1.035
    13   1 H        0.925     0.035     2.515     2.480
    14   1 H        0.925     0.035     2.521     2.483
    15   1 H        0.925     0.035     2.523     2.484
    16   1 H        0.924     0.031     2.578     2.511
    17   1 H        0.924     0.031     2.570     2.507
    18   1 H        0.924     0.030     2.591     2.517
    19   1 H        0.924     0.030     2.582     2.513
    20   1 H        0.924     0.032     2.556     2.500
    21   1 H        0.924     0.033     2.543     2.494
    22   1 H        0.924     0.030     2.588     2.516
    23   1 H        0.924     0.031     2.572     2.508
    24   1 H        0.924     0.039     2.459     2.452
    25   1 H        0.924     0.041     2.432     2.439
    26   1 H        0.924     0.040     2.444     2.445
    27   1 H        0.924     0.040     2.450     2.448
    28   1 H        0.924     0.093     1.846     2.125
    29   1 H        0.924     0.094     1.844     2.124
    30  48 Cd       4.150     0.473   190.136    26.467
    31   8 O        2.302    -0.556    24.067     6.626
    32   1 H        0.805     0.404     0.476     1.084
    33   1 H        0.805     0.406     0.474     1.081
    34   8 O        2.304    -0.555    24.054     6.624
    35   1 H        0.805     0.408     0.470     1.076
    36   1 H        0.805     0.406     0.473     1.080
    37   8 O        2.297    -0.557    24.093     6.629
    38   1 H        0.805     0.404     0.478     1.085
    39   1 H        0.805     0.405     0.475     1.082
    40   8 O        2.297    -0.556    24.079     6.627
    41   1 H        0.805     0.404     0.476     1.084
    42   1 H        0.805     0.404     0.477     1.085
    43   8 O        2.302    -0.556    24.077     6.627
    44   1 H        0.805     0.406     0.473     1.081
    45   1 H        0.805     0.405     0.475     1.082
    46   8 O        2.301    -0.556    24.068     6.626
    47   1 H        0.805     0.403     0.478     1.086
    48   1 H        0.805     0.406     0.473     1.080

 Mol. C6AA /au·bohr⁶  :      16771.802526
 Mol. C8AA /au·bohr⁸  :     426457.078773
 Mol. α(0) /au        :        195.307069


Wiberg/Mayer (AO) data.
largest (>0.10) Wiberg bond orders for each atom

 ---------------------------------------------------------------------------
     #   Z sym  total        # sym  WBO       # sym  WBO       # sym  WBO
 ---------------------------------------------------------------------------
     1   6 C    3.996 --     2 C    1.019    14 H    0.988    13 H    0.988
                            15 H    0.987
     2   6 C    3.997 --     1 C    1.019     3 C    1.008    16 H    0.979
                            17 H    0.979
     3   6 C    3.997 --     2 C    1.008     4 C    1.007    18 H    0.977
                            19 H    0.977
     4   6 C    3.997 --     3 C    1.007     5 C    1.007    20 H    0.977
                            21 H    0.977
     5   6 C    3.996 --     6 C    1.007     4 C    1.007    22 H    0.977
                            23 H    0.977
     6   6 C    3.996 --     7 C    1.007     5 C    1.007    24 H    0.977
                            25 H    0.977
     7   6 C    3.995 --     8 C    1.008     6 C    1.007    27 H    0.977
                            26 H    0.976
     8   6 C    3.992 --     7 C    1.008     9 C    0.991    29 H    0.949
                            28 H    0.941
     9   6 C    3.911 --    10 O    1.703    11 O    1.179     8 C    0.991
    10   8 O    1.971 --     9 C    1.703    11 O    0.171
    11   8 O    2.173 --     9 C    1.179    12 H    0.792    10 O    0.171
    12   1 H    0.815 --    11 O    0.792
    13   1 H    0.999 --     1 C    0.988
    14   1 H    0.999 --     1 C    0.988
    15   1 H    0.998 --     1 C    0.987
    16   1 H    0.999 --     2 C    0.979
    17   1 H    0.999 --     2 C    0.979
    18   1 H    0.999 --     3 C    0.977
    19   1 H    0.999 --     3 C    0.977
    20   1 H    0.999 --     4 C    0.977
    21   1 H    0.999 --     4 C    0.977
    22   1 H    0.999 --     5 C    0.977
    23   1 H    0.999 --     5 C    0.977
    24   1 H    0.998 --     6 C    0.977
    25   1 H    0.998 --     6 C    0.977
    26   1 H    0.998 --     7 C    0.976
    27   1 H    0.998 --     7 C    0.977
    28   1 H    0.991 --     8 C    0.941
    29   1 H    0.991 --     8 C    0.949
    30  48 Cd   2.131 --    34 O    0.344    43 O    0.340    31 O    0.339
                            46 O    0.338    40 O    0.336    37 O    0.336
    31   8 O    2.095 --    32 H    0.826    33 H    0.824    30 Cd   0.339
    32   1 H    0.836 --    31 O    0.826
    33   1 H    0.835 --    31 O    0.824
    34   8 O    2.099 --    36 H    0.824    35 H    0.822    30 Cd   0.344
    35   1 H    0.833 --    34 O    0.822
    36   1 H    0.835 --    34 O    0.824
    37   8 O    2.092 --    38 H    0.827    39 H    0.825    30 Cd   0.336
    38   1 H    0.837 --    37 O    0.827
    39   1 H    0.836 --    37 O    0.825
    40   8 O    2.093 --    42 H    0.826    41 H    0.825    30 Cd   0.336
    41   1 H    0.836 --    40 O    0.825
    42   1 H    0.837 --    40 O    0.826
    43   8 O    2.095 --    45 H    0.825    44 H    0.824    30 Cd   0.340
    44   1 H    0.835 --    43 O    0.824
    45   1 H    0.836 --    43 O    0.825
    46   8 O    2.094 --    47 H    0.827    48 H    0.823    30 Cd   0.338
    47   1 H    0.837 --    46 O    0.827
    48   1 H    0.835 --    46 O    0.823
 ---------------------------------------------------------------------------

Topologies differ in total number of bonds
Writing topology from bond orders to xtbtopo.mol

molecular dipole:
                 x           y           z       tot (Debye)
 q only:       49.734       2.293      -3.975
   full:       49.698       2.256      -3.930     126.844
molecular quadrupole (traceless):
                xx          xy          yy          xz          yz          zz
 q only:     1224.531      61.686    -615.831    -126.565       1.689    -608.700
  q+dip:     1222.878      60.062    -615.737    -125.543       4.019    -607.141
   full:     1224.073      59.997    -616.213    -125.347       3.922    -607.860

           -------------------------------------------------
          |                Geometry Summary                 |
           -------------------------------------------------

      molecular mass/u    :      378.7416428
   center of mass at/Å    :        7.9024489       0.1682932      -0.4094986
  moments of inertia/u·Å² :        0.6021134E+03   0.1646424E+05   0.1668105E+05
rotational constants/cm⁻¹ :        0.2799744E-01   0.1023894E-02   0.1010586E-02

 * 45 selected distances

     #   Z          #   Z                                           value/Å
     1   6 C        2   6 C                                       1.5242088
     2   6 C        3   6 C                                       1.5271250
     3   6 C        4   6 C                                       1.5269400
     4   6 C        5   6 C                                       1.5272010
     5   6 C        6   6 C                                       1.5269579
     6   6 C        7   6 C                                       1.5262769
     7   6 C        8   6 C                                       1.5254091
     9   6 C       10   8 O                                       1.2123741
     9   6 C       11   8 O                                       1.3248681
    11   8 O       12   1 H                                       0.9787979
     1   6 C       13   1 H                                       1.0878162
     1   6 C       14   1 H                                       1.0878381
     1   6 C       15   1 H                                       1.0873945
     2   6 C       16   1 H                                       1.0923768
     2   6 C       17   1 H                                       1.0923429
     3   6 C       18   1 H                                       1.0927516
     3   6 C       19   1 H                                       1.0927201
     4   6 C       20   1 H                                       1.0925215
     4   6 C       21   1 H                                       1.0924672
     5   6 C       22   1 H                                       1.0926122
     5   6 C       23   1 H                                       1.0925362
     6   6 C       24   1 H                                       1.0920165
     6   6 C       25   1 H                                       1.0919063
     7   6 C       26   1 H                                       1.0920466
     7   6 C       27   1 H                                       1.0920176
     8   6 C       28   1 H                                       1.0924761
     8   6 C       29   1 H                                       1.0913008
    30  48 Cd      31   8 O                                       2.1354446
    31   8 O       32   1 H                                       0.9673700
    31   8 O       33   1 H                                       0.9667606 (min)
    30  48 Cd      34   8 O                                       2.1318270
    34   8 O       35   1 H                                       0.9671239
    34   8 O       36   1 H                                       0.9674832
    30  48 Cd      37   8 O                                       2.1462058
    37   8 O       38   1 H                                       0.9673450
    37   8 O       39   1 H                                       0.9671271
    30  48 Cd      40   8 O                                       2.1466325 (max)
    40   8 O       41   1 H                                       0.9670788
    40   8 O       42   1 H                                       0.9674281
    30  48 Cd      43   8 O                                       2.1363543
    43   8 O       44   1 H                                       0.9670964
    43   8 O       45   1 H                                       0.9674348
    30  48 Cd      46   8 O                                       2.1375115
    46   8 O       47   1 H                                       0.9672008
Note: The following floating-point exceptions are signalling: IEEE_UNDERFLOW_FLAG IEEE_DENORMAL
normal termination of xtb
    46   8 O       48   1 H                                       0.9670444

 * 5 distinct bonds (by element types)

   Z      Z             #   av. dist./Å        max./Å        min./Å
   1 H    6 C          17     1.0914789     1.0927516     1.0873945
   6 C    6 C           7     1.5263027     1.5272010     1.5242088
   1 H    8 O          13     0.9680993     0.9787979     0.9667606
   6 C    8 O           2     1.2686211     1.3248681     1.2123741
   8 O   48 Cd          6     2.1389960     2.1466325     2.1318270


optimized geometry written to: xtbopt.xyz


           -------------------------------------------------
          | TOTAL ENERGY              -67.216964960074 Eh   |
          | GRADIENT NORM               0.000217152918 Eh/α |
          | HOMO-LUMO GAP               4.904342701975 eV   |
           -------------------------------------------------

------------------------------------------------------------------------
 * finished run on 2026/05/26 at 02:17:43.700     
------------------------------------------------------------------------
 total:
 * wall-time:     0 d,  0 h,  0 min, 39.628 sec
 *  cpu-time:     0 d,  0 h,  1 min,  5.233 sec
 * ratio c/w:     1.646 speedup
 SCF:
 * wall-time:     0 d,  0 h,  0 min,  0.484 sec
 *  cpu-time:     0 d,  0 h,  0 min,  0.918 sec
 * ratio c/w:     1.898 speedup
 ANC optimizer:
 * wall-time:     0 d,  0 h,  0 min, 39.069 sec
 *  cpu-time:     0 d,  0 h,  1 min,  4.200 sec
 * ratio c/w:     1.643 speedup

