      -----------------------------------------------------------      
     |                   =====================                   |     
     |                           x T B                           |     
     |                   =====================                   |     
     |                         S. Grimme                         |     
     |          Mulliken Center for Theoretical Chemistry        |     
     |                    University of Bonn                     |     
      -----------------------------------------------------------      

   * xtb version 6.7.1 (edcfbbe) compiled by 'conda@c0858423619e' on 2025-09-04

   xtb is free software: you can redistribute it and/or modify it under
   the terms of the GNU Lesser General Public License as published by
   the Free Software Foundation, either version 3 of the License, or
   (at your option) any later version.
   
   xtb is distributed in the hope that it will be useful,
   but WITHOUT ANY WARRANTY; without even the implied warranty of
   MERCHANTABILITY or FITNESS FOR A PARTICULAR PURPOSE.  See the
   GNU Lesser General Public License for more details.
   
   Cite this work as:
   * C. Bannwarth, E. Caldeweyher, S. Ehlert, A. Hansen, P. Pracht,
     J. Seibert, S. Spicher, S. Grimme, WIREs Comput. Mol. Sci., 2020, 11,
     e01493. DOI: 10.1002/wcms.1493
   
   for GFN2-xTB:
   * C. Bannwarth, S. Ehlert and S. Grimme., J. Chem. Theory Comput., 2019,
     15, 1652-1671. DOI: 10.1021/acs.jctc.8b01176
   for GFN1-xTB:
   * S. Grimme, C. Bannwarth, P. Shushkov, J. Chem. Theory Comput., 2017,
     13, 1989-2009. DOI: 10.1021/acs.jctc.7b00118
   for GFN0-xTB:
   * P. Pracht, E. Caldeweyher, S. Ehlert, S. Grimme, ChemRxiv, 2019, preprint.
     DOI: 10.26434/chemrxiv.8326202.v1
   for GFN-FF:
   * S. Spicher and S. Grimme, Angew. Chem. Int. Ed., 2020, 59, 15665-15673.
     DOI: 10.1002/anie.202004239
   
   for ALPB and GBSA implicit solvation:
   * S. Ehlert, M. Stahn, S. Spicher, S. Grimme, J. Chem. Theory Comput.,
     2021, 17, 4250-4261. DOI: 10.1021/acs.jctc.1c00471
   
   for ddCOSMO and CPCM-X implicit solvation:
   * M. Stahn, S. Ehlert, S. Grimme, J. Phys. Chem. A,
     2023, XX, XXXX-XXXX. DOI: 10.1021/acs.jpca.3c04382
   
   for DFT-D4:
   * E. Caldeweyher, C. Bannwarth and S. Grimme, J. Chem. Phys., 2017,
     147, 034112. DOI: 10.1063/1.4993215
   * E. Caldeweyher, S. Ehlert, A. Hansen, H. Neugebauer, S. Spicher,
     C. Bannwarth and S. Grimme, J. Chem. Phys., 2019, 150, 154122.
     DOI: 10.1063/1.5090222
   * E. Caldeweyher, J.-M. Mewes, S. Ehlert and S. Grimme, Phys. Chem. Chem. Phys.
     2020, 22, 8499-8512. DOI: 10.1039/D0CP00502A
   
   for sTDA-xTB:
   * S. Grimme and C. Bannwarth, J. Chem. Phys., 2016, 145, 054103.
     DOI: 10.1063/1.4959605
   
   in the mass-spec context:
   * V. Asgeirsson, C. Bauer and S. Grimme, Chem. Sci., 2017, 8, 4879.
     DOI: 10.1039/c7sc00601b
   * J. Koopman and S. Grimme, ACS Omega 2019, 4, 12, 15120-15133.
     DOI: 10.1021/acsomega.9b02011
   
   for metadynamics refer to:
   * S. Grimme, J. Chem. Theory Comput., 2019, 155, 2847-2862
     DOI: 10.1021/acs.jctc.9b00143
   
   for SPH calculations refer to:
   * S. Spicher and S. Grimme, J. Chem. Theory Comput., 2021, 17, 1701-1714
     DOI: 10.1021/acs.jctc.0c01306
   
   for ONIOM refer to:
   * C. Plett, A. Katbashev, S. Ehlert, S. Grimme, M. Bursch,
     Phys. Chem. Chem. Phys., 2023, 25, 17860-17868. DOI: 10.1039/D3CP02178E
   
   for DIPRO refer to:
   * J. Kohn, N. Gildemeister, S. Grimme, D. Fazzi, A. Hansen,
     J. Chem. Phys., 2023, just accepted.
   
   for PTB refer to:
   * S. Grimme, M. Mueller, A. Hansen, J. Chem. Phys., 2023, 158, 124111.
     DOI: 10.1063/5.0137838
   
   with help from (in alphabetical order)
   P. Atkinson, C. Bannwarth, F. Bohle, G. Brandenburg, E. Caldeweyher
   M. Checinski, S. Dohm, S. Ehlert, S. Ehrlich, I. Gerasimov, C. Hölzer
   A. Katbashev, J. Kohn, J. Koopman, C. Lavigne, S. Lehtola, F. März, M. Müller,
   F. Musil, H. Neugebauer, J. Pisarek, C. Plett, P. Pracht, F. Pultar,
   J. Seibert, P. Shushkov, S. Spicher, M. Stahn, M. Steiner, T. Strunk,
   J. Stückrath, T. Rose, and J. Unsleber
   
 * started run on 2026/05/26 at 02:16:12.404     
   ID    Z sym.   atoms
    1    6 C      1-9
    2    8 O      10, 11, 31, 34, 37, 40, 43, 46
    3    1 H      12-29, 32, 33, 35, 36, 38, 39, 41, 42, 44, 45, 47, 48
    4   48 Cd     30

           -------------------------------------------------
          |                Calculation Setup                |
           -------------------------------------------------

          program call               : /content/xtb_env/bin/xtb input.xyz --gfn 2 --opt tight --alpb water --chrg 2 --uhf 0
          hostname                   : 01035569fb61
          coordinate file            : input.xyz
          omp threads                :                     2


molecular fragmentation (1/2 indicates fragments):
111111111111111111111111111111111111111111222222
# atoms in fragment 1/2:    42     6
 fragment masses (1/2) :      342.71       36.03
CMA distance (Bohr)    :   7.386
constraining FC (au)   :  0.0500

           -------------------------------------------------
          |                 G F N 2 - x T B                 |
           -------------------------------------------------

        Reference                      10.1021/acs.jctc.8b01176
      * Hamiltonian:
        H0-scaling (s, p, d)           1.850000    2.230000    2.230000
        zeta-weighting                 0.500000
      * Dispersion:
        s8                             2.700000
        a1                             0.520000
        a2                             5.000000
        s9                             5.000000
      * Repulsion:
        kExp                           1.500000    1.000000
        rExp                           1.000000
      * Coulomb:
        alpha                          2.000000
        third order                    shell-resolved
        anisotropic                    true
        a3                             3.000000
        a5                             4.000000
        cn-shift                       1.200000
        cn-exp                         4.000000
        max-rad                        5.000000

      * Solvation model:               ALPB
        Solvent                        water
        Parameter file                 internal GFN2-xTB/ALPB
        Dielectric constant                8.0200E+01
        Reference state                gsolv [1 M gas/solution]
        Free energy shift                  1.0808E-03 Eh       6.7819E-01 kcal/mol
        Temperature                        2.9815E+02 K
        Density                            1.0000E+00 kg/L
        Solvent mass                       1.8000E+01 g/mol
        Interaction kernel             P16
        Born radius scaling (c1)           1.4744E+00
        Born radii integrator          GBOBC
        Born offset                        0.0000E+00 a0       0.0000E+00 AA
        H-bond correction              true
        Ion screening                  false
        Surface tension                    1.0000E-05 Eh       1.5569E+01 dyn/cm
        Grid points                               230 per atom

          ...................................................
          :                      SETUP                      :
          :.................................................:
          :  # basis functions                 102          :
          :  # atomic orbitals                 102          :
          :  # shells                           66          :
          :  # electrons                       114          :
          :  max. iterations                   250          :
          :  Hamiltonian                  GFN2-xTB          :
          :  restarted?                      false          :
          :  GBSA solvation                   true          :
          :  PC potential                    false          :
          :  electronic temp.          300.0000000     K    :
          :  accuracy                    1.0000000          :
          :  -> integral cutoff          0.2500000E+02      :
          :  -> integral neglect         0.1000000E-07      :
          :  -> SCF convergence          0.1000000E-05 Eh   :
          :  -> wf. convergence          0.1000000E-03 e    :
          :  Broyden damping             0.4000000          :
          :  net charge                          2          :
          :  unpaired electrons                  0          :
          ...................................................

 iter      E             dE          RMSdq      gap      omega  full diag
   1    -65.5875411 -0.655875E+02  0.609E+00    0.12       0.0  T
   2    -65.8512181 -0.263677E+00  0.351E+00    0.17       1.0  T
   3    -65.9501021 -0.988841E-01  0.266E+00    0.22       1.0  T
   4    -65.9402242  0.987795E-02  0.204E+00    0.12       1.0  T
   5    -66.0875394 -0.147315E+00  0.588E-01    0.30       1.0  T
   6    -66.0929825 -0.544312E-02  0.358E-01    0.13       1.0  T
   7    -66.0906197  0.236281E-02  0.292E-01    0.22       1.0  T
   8    -66.0911363 -0.516658E-03  0.197E-01    0.10       1.0  T
   9    -66.0929570 -0.182071E-02  0.111E-01    0.17       1.0  T
  10    -66.0936640 -0.706935E-03  0.311E-02    0.14       1.0  T
  11    -66.0936318  0.321933E-04  0.252E-02    0.13       1.0  T
  12    -66.0936537 -0.218920E-04  0.168E-02    0.15       1.0  T
  13    -66.0936798 -0.261220E-04  0.467E-03    0.14       3.1  T
  14    -66.0936802 -0.426631E-06  0.182E-03    0.14       7.9  T
  15    -66.0936802  0.571008E-07  0.164E-03    0.14       8.8  T
  16    -66.0936803 -0.131473E-06  0.242E-04    0.14      59.8  T
  17    -66.0936803 -0.905288E-09  0.909E-05    0.14     158.8  T

   *** convergence criteria satisfied after 17 iterations ***

         #    Occupation            Energy/Eh            Energy/eV
      -------------------------------------------------------------
         1        2.0000           -0.7688720             -20.9221
       ...           ...                  ...                  ...
        51        2.0000           -0.3771611             -10.2631
        52        2.0000           -0.3625182              -9.8646
        53        2.0000           -0.3534065              -9.6167
        54        2.0000           -0.3224004              -8.7730
        55        2.0000           -0.3085803              -8.3969
        56        2.0000           -0.2898318              -7.8867
        57        1.8733           -0.2661905              -7.2434 (HOMO)
        58        0.1267           -0.2610731              -7.1042 (LUMO)
        59        0.0000           -0.2506574              -6.8207
        60                         -0.2177589              -5.9255
        61                         -0.2120315              -5.7697
        62                         -0.1666870              -4.5358
       ...                                ...                  ...
       102                         56.5144485            1537.8364
      -------------------------------------------------------------
                  HL-Gap            0.0051175 Eh            0.1393 eV
             Fermi-level           -0.2636318 Eh           -7.1738 eV

 SCC (total)                   0 d,  0 h,  0 min,  0.621 sec
 SCC setup                      ...        0 min,  0.007 sec (  1.071%)
 Dispersion                     ...        0 min,  0.005 sec (  0.738%)
 classical contributions        ...        0 min,  0.000 sec (  0.033%)
 integral evaluation            ...        0 min,  0.017 sec (  2.692%)
 iterations                     ...        0 min,  0.541 sec ( 87.155%)
 molecular gradient             ...        0 min,  0.048 sec (  7.734%)
 printout                       ...        0 min,  0.001 sec (  0.228%)

         :::::::::::::::::::::::::::::::::::::::::::::::::::::
         ::                     SUMMARY                     ::
         :::::::::::::::::::::::::::::::::::::::::::::::::::::
         :: total energy             -63.189879633037 Eh    ::
         :: total w/o Gsasa/hb       -63.115778786730 Eh    ::
         :: gradient norm             16.938068028515 Eh/a0 ::
         :: HOMO-LUMO gap              0.139253418884 eV    ::
         ::.................................................::
         :: SCC energy               -66.093846756417 Eh    ::
         :: -> isotropic ES            0.585731802260 Eh    ::
         :: -> anisotropic ES          0.008252093543 Eh    ::
         :: -> anisotropic XC          0.035813298104 Eh    ::
         :: -> dispersion             -0.028444452635 Eh    ::
         :: -> Gsolv                  -0.357208943171 Eh    ::
         ::    -> Gelec               -0.283108096864 Eh    ::
         ::    -> Gsasa               -0.001036146493 Eh    ::
         ::    -> Ghb                 -0.074145459512 Eh    ::
         ::    -> Gshift               0.001080759698 Eh    ::
         :: repulsion energy           2.903967123380 Eh    ::
         :: add. restraining           0.000000000000 Eh    ::
         :: total charge               2.000000000000 e     ::
         :::::::::::::::::::::::::::::::::::::::::::::::::::::

      ----------------------------------------------------------- 
     |                   =====================                   |
     |                        A N C O P T                        |
     |                   =====================                   |
     |               Approximate Normal Coordinate               |
     |                Rational Function Optimizer                |
      ----------------------------------------------------------- 
      ----------------------------------------------------------- 
     |                   =====================                   |
     |                        A N C O P T                        |
     |                   =====================                   |
     |               Approximate Normal Coordinate               |
     |                Rational Function Optimizer                |
      ----------------------------------------------------------- 

          ...................................................
          :                      SETUP                      :
          :.................................................:
          :   optimization level             tight          :
          :   max. optcycles                   240          :
          :   ANC micro-cycles                  20          :
          :   degrees of freedom               138          :
          :.................................................:
          :   RF solver                   davidson          :
          :   write xtbopt.log                true          :
          :   linear?                        false          :
          :   energy convergence         0.1000000E-05 Eh   :
          :   grad. convergence          0.8000000E-03 Eh/α :
          :   maxmium RF displ.          1.0000000          :
          :   Hlow (freq-cutoff)         0.1000000E-01      :
          :   Hmax (freq-cutoff)         5.0000000          :
          :   S6 in model hess.         20.0000000          :
          ...................................................

generating ANC from exact Hessian ...
Using Lindh-Hessian (1995)
 Shifting diagonal of input Hessian by    1.0094356550702527E-002
 Lowest  eigenvalues of input Hessian
    0.000000    0.010000    0.010041    0.010042    0.000000    0.000000
    0.000000    0.000000    0.000000    0.010128    0.010136    0.010146
    0.010179    0.010267    0.010288    0.010388    0.010498    0.010556
 Highest eigenvalues
    2.536078    2.839546    3.709433    5.225338    6.231593  137.521379


........................................................................
.............................. CYCLE    1 ..............................
........................................................................

 iter      E             dE          RMSdq      gap      omega  full diag
   1    -66.0936803 -0.660937E+02  0.638E-05    0.14       0.0  T
   2    -66.0936803  0.133176E-08  0.121E-04    0.14     119.1  T
   3    -66.0936803 -0.141618E-08  0.525E-05    0.14     275.1  T
     SCC iter.                  ...        0 min,  0.026 sec
     gradient                   ...        0 min,  0.083 sec
 * total energy  :   -63.1898796 Eh     change       -0.7750600E-10 Eh
   gradient norm :    16.9380683 Eh/α   predicted     0.0000000E+00 (-100.00%)
   displ. norm   :     0.8647230 α      lambda       -0.1462341E+02
   maximum displ.:     0.8335562 α      in ANC's #138, #137, #133, ...

........................................................................
.............................. CYCLE    2 ..............................
........................................................................

 iter      E             dE          RMSdq      gap      omega  full diag
   1    -66.2747429 -0.662747E+02  0.722E-01    0.21       0.0  T
   2    -66.1952704  0.794726E-01  0.956E-01    0.02       1.0  T
   3    -66.2685372 -0.732668E-01  0.484E-01    0.34       1.0  T
   4    -66.2661020  0.243513E-02  0.407E-01    0.34       1.0  T
   5    -66.2693429 -0.324089E-02  0.311E-01    0.34       1.0  T
   6    -66.2719677 -0.262474E-02  0.231E-01    0.31       1.0  T
   7    -66.2728673 -0.899660E-03  0.203E-01    0.30       1.0  T
   8    -66.2735309 -0.663575E-03  0.179E-01    0.28       1.0  T
   9    -66.2744218 -0.890868E-03  0.140E-01    0.25       1.0  T
  10    -66.2755850 -0.116325E-02  0.762E-02    0.20       1.0  T
  11    -66.2760815 -0.496530E-03  0.267E-02    0.14       1.0  T
  12    -66.2760274  0.541682E-04  0.342E-02    0.17       1.0  T
  13    -66.2761440 -0.116585E-03  0.485E-03    0.15       3.0  T
  14    -66.2761389  0.507318E-05  0.833E-03    0.15       1.7  T
  15    -66.2761427 -0.379964E-05  0.576E-03    0.16       2.5  T
  16    -66.2761460 -0.329321E-05  0.110E-03    0.15      13.1  T
  17    -66.2761461 -0.959465E-07  0.542E-04    0.15      26.6  T
  18    -66.2761461 -0.152086E-07  0.377E-04    0.15      38.2  T
     SCC iter.                  ...        0 min,  0.252 sec
     gradient                   ...        0 min,  0.096 sec
 * total energy  :   -64.3450691 Eh     change       -0.1155189E+01 Eh
   gradient norm :     5.6305179 Eh/α   predicted    -0.1279641E+02 (1007.73%)
   displ. norm   :     0.6903409 α      lambda       -0.3082215E+01
   maximum displ.:     0.3905330 α      in ANC's #135, #133, #130, ...

........................................................................
.............................. CYCLE    3 ..............................
........................................................................

 iter      E             dE          RMSdq      gap      omega  full diag
   1    -66.2326026 -0.662326E+02  0.154E+00    0.39       0.0  T
   2    -65.8734996  0.359103E+00  0.215E+00    0.12       1.0  T
   3    -66.2361848 -0.362685E+00  0.806E-01    0.63       1.0  T
   4    -66.2564709 -0.202861E-01  0.573E-01    0.61       1.0  T
   5    -66.2609084 -0.443748E-02  0.380E-01    0.57       1.0  T
   6    -66.2660951 -0.518676E-02  0.270E-01    0.51       1.0  T
   7    -66.2677118 -0.161669E-02  0.198E-01    0.43       1.0  T
   8    -66.2687987 -0.108687E-02  0.141E-01    0.34       1.0  T
   9    -66.2699876 -0.118888E-02  0.380E-02    0.20       1.0  T
  10    -66.2700192 -0.315798E-04  0.197E-02    0.18       1.0  T
  11    -66.2699908  0.283707E-04  0.209E-02    0.20       1.0  T
  12    -66.2700243 -0.335305E-04  0.892E-03    0.18       1.6  T
  13    -66.2700298 -0.551561E-05  0.398E-03    0.19       3.6  T
  14    -66.2700311 -0.128686E-05  0.154E-03    0.19       9.4  T
  15    -66.2700313 -0.180887E-06  0.381E-04    0.19      37.9  T
  16    -66.2700313 -0.116918E-08  0.191E-04    0.19      75.5  T
     SCC iter.                  ...        0 min,  0.219 sec
     gradient                   ...        0 min,  0.045 sec
 * total energy  :   -65.4163448 Eh     change       -0.1071276E+01 Eh
   gradient norm :     1.0593578 Eh/α   predicted    -0.2275558E+01 ( 112.42%)
   displ. norm   :     0.6877499 α      lambda       -0.5758305E+00
   maximum displ.:     0.2978493 α      in ANC's #55, #87, #51, ...

........................................................................
.............................. CYCLE    4 ..............................
........................................................................

 iter      E             dE          RMSdq      gap      omega  full diag
   1    -66.4960513 -0.664961E+02  0.110E+00    0.30       0.0  T
   2    -66.5105610 -0.145097E-01  0.562E-01    0.55       1.0  T
   3    -66.5120606 -0.149962E-02  0.319E-01    0.55       1.0  T
   4    -66.5126607 -0.600054E-03  0.189E-01    0.54       1.0  T
   5    -66.5130977 -0.437064E-03  0.108E-01    0.52       1.0  T
   6    -66.5133709 -0.273205E-03  0.256E-02    0.51       1.0  T
   7    -66.5133826 -0.116642E-04  0.154E-02    0.51       1.0  T
   8    -66.5133848 -0.221355E-05  0.718E-03    0.51       2.0  T
   9    -66.5133852 -0.403062E-06  0.375E-03    0.51       3.9  T
  10    -66.5133853 -0.120824E-06  0.147E-03    0.51       9.8  T
  11    -66.5133853 -0.171789E-07  0.589E-04    0.51      24.5  T
  12    -66.5133853 -0.225005E-08  0.284E-04    0.51      50.8  T
     SCC iter.                  ...        0 min,  0.161 sec
     gradient                   ...        0 min,  0.050 sec
 * total energy  :   -65.8058203 Eh     change       -0.3894755E+00 Eh
   gradient norm :     0.4441412 Eh/α   predicted    -0.4240990E+00 (   8.89%)
   displ. norm   :     0.7984636 α      lambda       -0.2941945E+00
   maximum displ.:     0.5156480 α      in ANC's #55, #51, #57, ...

........................................................................
.............................. CYCLE    5 ..............................
........................................................................

 iter      E             dE          RMSdq      gap      omega  full diag
   1    -66.7495699 -0.667496E+02  0.627E-01    1.02       0.0  T
   2    -66.7518768 -0.230682E-02  0.328E-01    1.14       1.0  T
   3    -66.7516251  0.251684E-03  0.207E-01    1.14       1.0  T
   4    -66.7523164 -0.691315E-03  0.708E-02    1.13       1.0  T
   5    -66.7523835 -0.670703E-04  0.304E-02    1.11       1.0  T
   6    -66.7524089 -0.254530E-04  0.111E-02    1.11       1.3  T
   7    -66.7524089  0.559534E-07  0.580E-03    1.11       2.5  T
   8    -66.7524093 -0.420728E-06  0.148E-03    1.11       9.7  T
   9    -66.7524093 -0.244952E-07  0.699E-04    1.11      20.6  T
  10    -66.7524093 -0.398613E-08  0.358E-04    1.11      40.3  T
     SCC iter.                  ...        0 min,  0.155 sec
     gradient                   ...        0 min,  0.070 sec
 * total energy  :   -66.0721680 Eh     change       -0.2663477E+00 Eh
   gradient norm :     0.3777339 Eh/α   predicted    -0.2408786E+00 (  -9.56%)
   displ. norm   :     0.8704033 α      lambda       -0.2800774E+00
   maximum displ.:     0.4828061 α      in ANC's #55, #101, #51, ...

........................................................................
.............................. CYCLE    6 ..............................
........................................................................

 iter      E             dE          RMSdq      gap      omega  full diag
   1    -66.9721057 -0.669721E+02  0.614E-01    1.47       0.0  T
   2    -66.9746203 -0.251460E-02  0.316E-01    1.62       1.0  T
   3    -66.9746195  0.852569E-06  0.152E-01    1.63       1.0  T
   4    -66.9748333 -0.213863E-03  0.533E-02    1.62       1.0  T
   5    -66.9748710 -0.376360E-04  0.166E-02    1.61       1.0  T
   6    -66.9748752 -0.424900E-05  0.977E-03    1.61       1.5  T
   7    -66.9748754 -0.160185E-06  0.452E-03    1.61       3.2  T
   8    -66.9748756 -0.245591E-06  0.163E-03    1.61       8.9  T
   9    -66.9748756 -0.257705E-07  0.612E-04    1.61      23.6  T
  10    -66.9748756 -0.153501E-08  0.275E-04    1.61      52.5  T
     SCC iter.                  ...        0 min,  0.108 sec
     gradient                   ...        0 min,  0.086 sec
 * total energy  :   -66.3194247 Eh     change       -0.2472567E+00 Eh
   gradient norm :     0.3085772 Eh/α   predicted    -0.2461323E+00 (  -0.45%)
   displ. norm   :     0.8780963 α      lambda       -0.2225124E+00
   maximum displ.:     0.5366527 α      in ANC's #55, #51, #101, ...

........................................................................
.............................. CYCLE    7 ..............................
........................................................................

 iter      E             dE          RMSdq      gap      omega  full diag
   1    -67.1395261 -0.671395E+02  0.497E-01    2.07       0.0  T
   2    -67.1407057 -0.117966E-02  0.263E-01    2.17       1.0  T
   3    -67.1406897  0.160562E-04  0.109E-01    2.17       1.0  T
   4    -67.1408036 -0.113910E-03  0.323E-02    2.16       1.0  T
   5    -67.1408202 -0.166710E-04  0.107E-02    2.16       1.4  T
   6    -67.1408217 -0.141520E-05  0.596E-03    2.16       2.4  T
   7    -67.1408218 -0.118723E-06  0.236E-03    2.16       6.1  T
   8    -67.1408218 -0.499892E-07  0.113E-03    2.16      12.8  T
   9    -67.1408218 -0.116880E-07  0.398E-04    2.16      36.3  T
  10    -67.1408218 -0.773255E-09  0.173E-04    2.16      83.6  T
     SCC iter.                  ...        0 min,  0.098 sec
     gradient                   ...        0 min,  0.045 sec
 * total energy  :   -66.5168913 Eh     change       -0.1974666E+00 Eh
   gradient norm :     0.2476969 Eh/α   predicted    -0.1970407E+00 (  -0.22%)
   displ. norm   :     0.8563547 α      lambda       -0.1756253E+00
   maximum displ.:     0.4781049 α      in ANC's #55, #51, #25, ...

........................................................................
.............................. CYCLE    8 ..............................
........................................................................

 iter      E             dE          RMSdq      gap      omega  full diag
   1    -67.2786651 -0.672787E+02  0.475E-01    2.62       0.0  T
   2    -67.2792235 -0.558360E-03  0.266E-01    2.67       1.0  T
   3    -67.2791609  0.626308E-04  0.895E-02    2.67       1.0  T
   4    -67.2792916 -0.130733E-03  0.223E-02    2.66       1.0  T
   5    -67.2792997 -0.814051E-05  0.912E-03    2.66       1.6  T
   6    -67.2793004 -0.656491E-06  0.505E-03    2.66       2.9  T
   7    -67.2793005 -0.971892E-07  0.168E-03    2.66       8.6  T
   8    -67.2793005 -0.204544E-07  0.788E-04    2.66      18.3  T
   9    -67.2793005 -0.596330E-08  0.293E-04    2.66      49.3  T
     SCC iter.                  ...        0 min,  0.157 sec
     gradient                   ...        0 min,  0.088 sec
 * total energy  :   -66.6712175 Eh     change       -0.1543262E+00 Eh
   gradient norm :     0.1969241 Eh/α   predicted    -0.1522095E+00 (  -1.37%)
   displ. norm   :     0.8334729 α      lambda       -0.1348442E+00
   maximum displ.:     0.4125456 α      in ANC's #55, #25, #51, ...

........................................................................
.............................. CYCLE    9 ..............................
........................................................................

 iter      E             dE          RMSdq      gap      omega  full diag
   1    -67.3888703 -0.673889E+02  0.491E-01    3.12       0.0  T
   2    -67.3893177 -0.447419E-03  0.278E-01    3.14       1.0  T
   3    -67.3892162  0.101503E-03  0.885E-02    3.14       1.0  T
   4    -67.3893820 -0.165752E-03  0.207E-02    3.14       1.0  T
   5    -67.3893904 -0.843653E-05  0.857E-03    3.14       1.7  T
   6    -67.3893908 -0.383231E-06  0.498E-03    3.15       2.9  T
   7    -67.3893909 -0.985162E-07  0.146E-03    3.15       9.9  T
   8    -67.3893909 -0.147446E-07  0.706E-04    3.15      20.4  T
   9    -67.3893909 -0.369512E-08  0.270E-04    3.15      53.5  T
     SCC iter.                  ...        0 min,  0.185 sec
     gradient                   ...        0 min,  0.092 sec
 * total energy  :   -66.7873823 Eh     change       -0.1161648E+00 Eh
   gradient norm :     0.1579728 Eh/α   predicted    -0.1142588E+00 (  -1.64%)
   displ. norm   :     0.8083422 α      lambda       -0.9793819E-01
   maximum displ.:     0.3575473 α      in ANC's #25, #55, #46, ...

........................................................................
.............................. CYCLE   10 ..............................
........................................................................

 iter      E             dE          RMSdq      gap      omega  full diag
   1    -67.4690239 -0.674690E+02  0.471E-01    3.58       0.0  T
   2    -67.4692923 -0.268429E-03  0.269E-01    3.59       1.0  T
   3    -67.4692171  0.752666E-04  0.681E-02    3.60       1.0  T
   4    -67.4693350 -0.117931E-03  0.163E-02    3.60       1.0  T
   5    -67.4693403 -0.524775E-05  0.755E-03    3.61       1.9  T
   6    -67.4693405 -0.198687E-06  0.407E-03    3.61       3.5  T
   7    -67.4693406 -0.918528E-07  0.117E-03    3.61      12.3  T
   8    -67.4693406 -0.566941E-08  0.577E-04    3.61      25.0  T
   9    -67.4693406 -0.211878E-08  0.223E-04    3.61      64.7  T
     SCC iter.                  ...        0 min,  0.174 sec
     gradient                   ...        0 min,  0.046 sec
 * total energy  :   -66.8703067 Eh     change       -0.8292436E-01 Eh
   gradient norm :     0.1372894 Eh/α   predicted    -0.8096645E-01 (  -2.36%)
   displ. norm   :     0.7937635 α      lambda       -0.6962010E-01
   maximum displ.:     0.4433548 α      in ANC's #25, #46, #55, ...

........................................................................
.............................. CYCLE   11 ..............................
........................................................................

 iter      E             dE          RMSdq      gap      omega  full diag
   1    -67.5253858 -0.675254E+02  0.397E-01    4.03       0.0  T
   2    -67.5254742 -0.884328E-04  0.228E-01    4.05       1.0  T
   3    -67.5254731  0.113664E-05  0.284E-02    4.06       1.0  T
   4    -67.5254912 -0.181134E-04  0.105E-02    4.06       1.4  T
   5    -67.5254927 -0.149086E-05  0.574E-03    4.06       2.5  T
   6    -67.5254928 -0.118910E-06  0.227E-03    4.06       6.4  T
   7    -67.5254928 -0.479734E-07  0.876E-04    4.06      16.5  T
   8    -67.5254928 -0.273999E-08  0.463E-04    4.06      31.2  T
     SCC iter.                  ...        0 min,  0.076 sec
     gradient                   ...        0 min,  0.083 sec
 * total energy  :   -66.9293157 Eh     change       -0.5900900E-01 Eh
   gradient norm :     0.1308842 Eh/α   predicted    -0.5674250E-01 (  -3.84%)
   displ. norm   :     0.7901237 α      lambda       -0.5251567E-01
   maximum displ.:     0.5068688 α      in ANC's #25, #46, #30, ...

........................................................................
.............................. CYCLE   12 ..............................
........................................................................

 iter      E             dE          RMSdq      gap      omega  full diag
   1    -67.5685367 -0.675685E+02  0.319E-01    4.40       0.0  T
   2    -67.5685911 -0.543590E-04  0.184E-01    4.45       1.0  T
   3    -67.5685763  0.147952E-04  0.298E-02    4.45       1.0  T
   4    -67.5686069 -0.306434E-04  0.951E-03    4.47       1.5  T
   5    -67.5686073 -0.396337E-06  0.496E-03    4.47       2.9  T
   6    -67.5686074 -0.538557E-07  0.134E-03    4.47      10.8  T
   7    -67.5686074 -0.165786E-07  0.608E-04    4.47      23.7  T
   8    -67.5686074 -0.160692E-08  0.376E-04    4.47      38.4  T
     SCC iter.                  ...        0 min,  0.134 sec
     gradient                   ...        0 min,  0.051 sec
 * total energy  :   -66.9747547 Eh     change       -0.4543898E-01 Eh
   gradient norm :     0.1274805 Eh/α   predicted    -0.4265053E-01 (  -6.14%)
   displ. norm   :     0.8060495 α      lambda       -0.4494589E-01
   maximum displ.:     0.5654383 α      in ANC's #25, #46, #30, ...

........................................................................
.............................. CYCLE   13 ..............................
........................................................................

 iter      E             dE          RMSdq      gap      omega  full diag
   1    -67.6077213 -0.676077E+02  0.258E-01    4.57       0.0  T
   2    -67.6078299 -0.108675E-03  0.151E-01    4.61       1.0  T
   3    -67.6078090  0.209071E-04  0.409E-02    4.60       1.0  T
   4    -67.6078489 -0.398922E-04  0.125E-02    4.62       1.2  T
   5    -67.6078498 -0.910080E-06  0.689E-03    4.61       2.1  T
   6    -67.6078499 -0.435881E-07  0.195E-03    4.61       7.4  T
   7    -67.6078499 -0.173143E-07  0.494E-04    4.61      29.2  T
   8    -67.6078499 -0.140011E-08  0.241E-04    4.61      59.9  T
     SCC iter.                  ...        0 min,  0.105 sec
     gradient                   ...        0 min,  0.066 sec
 * total energy  :   -67.0142456 Eh     change       -0.3949095E-01 Eh
   gradient norm :     0.1248196 Eh/α   predicted    -0.3707397E-01 (  -6.12%)
   displ. norm   :     0.8030676 α      lambda       -0.4393609E-01
   maximum displ.:     0.5152419 α      in ANC's #25, #46, #23, ...

........................................................................
.............................. CYCLE   14 ..............................
........................................................................

 iter      E             dE          RMSdq      gap      omega  full diag
   1    -67.6528339 -0.676528E+02  0.254E-01    4.46       0.0  T
   2    -67.6530453 -0.211415E-03  0.150E-01    4.49       1.0  T
   3    -67.6530378  0.747558E-05  0.530E-02    4.46       1.0  T
   4    -67.6530721 -0.343089E-04  0.173E-02    4.49       1.0  T
   5    -67.6530737 -0.162391E-05  0.977E-03    4.48       1.5  T
   6    -67.6530738 -0.950233E-07  0.279E-03    4.48       5.2  T
   7    -67.6530739 -0.423035E-07  0.751E-04    4.48      19.2  T
   8    -67.6530739 -0.264005E-08  0.331E-04    4.48      43.6  T
     SCC iter.                  ...        0 min,  0.086 sec
     gradient                   ...        0 min,  0.047 sec
 * total energy  :   -67.0488277 Eh     change       -0.3458212E-01 Eh
   gradient norm :     0.1182009 Eh/α   predicted    -0.3613566E-01 (   4.49%)
   displ. norm   :     0.8222536 α      lambda       -0.4275981E-01
   maximum displ.:     0.5757226 α      in ANC's #25, #30, #34, ...

........................................................................
.............................. CYCLE   15 ..............................
........................................................................

 iter      E             dE          RMSdq      gap      omega  full diag
   1    -67.6801935 -0.676802E+02  0.273E-01    4.40       0.0  T
   2    -67.6804206 -0.227129E-03  0.162E-01    4.42       1.0  T
   3    -67.6804242 -0.353566E-05  0.464E-02    4.39       1.0  T
   4    -67.6804406 -0.164690E-04  0.172E-02    4.40       1.0  T
   5    -67.6804425 -0.187366E-05  0.998E-03    4.40       1.4  T
   6    -67.6804427 -0.145341E-06  0.304E-03    4.40       4.7  T
   7    -67.6804427 -0.421748E-07  0.793E-04    4.40      18.2  T
   8    -67.6804427 -0.371115E-08  0.375E-04    4.40      38.5  T
     SCC iter.                  ...        0 min,  0.080 sec
     gradient                   ...        0 min,  0.050 sec
 * total energy  :   -67.0791447 Eh     change       -0.3031693E-01 Eh
   gradient norm :     0.1175413 Eh/α   predicted    -0.3583491E-01 (  18.20%)
   displ. norm   :     0.7368614 α      lambda       -0.2850860E-01
   maximum displ.:     0.5130993 α      in ANC's #25, #23, #30, ...

........................................................................
.............................. CYCLE   16 ..............................
........................................................................

 iter      E             dE          RMSdq      gap      omega  full diag
   1    -67.7150714 -0.677151E+02  0.252E-01    4.36       0.0  T
   2    -67.7151354 -0.639997E-04  0.149E-01    4.37       1.0  T
   3    -67.7151280  0.740419E-05  0.272E-02    4.35       1.0  T
   4    -67.7151431 -0.151078E-04  0.102E-02    4.36       1.4  T
   5    -67.7151433 -0.263373E-06  0.637E-03    4.36       2.3  T
   6    -67.7151434 -0.592571E-07  0.136E-03    4.36      10.6  T
   7    -67.7151434 -0.155398E-07  0.434E-04    4.36      33.3  T
   8    -67.7151434 -0.953719E-09  0.203E-04    4.36      70.9  T
     SCC iter.                  ...        0 min,  0.086 sec
     gradient                   ...        0 min,  0.088 sec
 * total energy  :   -67.1021065 Eh     change       -0.2296188E-01 Eh
   gradient norm :     0.1199096 Eh/α   predicted    -0.2199390E-01 (  -4.22%)
   displ. norm   :     0.7412710 α      lambda       -0.2562856E-01
   maximum displ.:     0.5097439 α      in ANC's #25, #51, #55, ...

........................................................................
.............................. CYCLE   17 ..............................
........................................................................

 iter      E             dE          RMSdq      gap      omega  full diag
   1    -67.7389101 -0.677389E+02  0.185E-01    4.23       0.0  T
   2    -67.7389900 -0.799609E-04  0.111E-01    4.26       1.0  T
   3    -67.7389884  0.162790E-05  0.267E-02    4.25       1.0  T
   4    -67.7389954 -0.701770E-05  0.872E-03    4.26       1.7  T
   5    -67.7389960 -0.559632E-06  0.520E-03    4.26       2.8  T
   6    -67.7389960 -0.358465E-07  0.148E-03    4.26       9.8  T
   7    -67.7389960 -0.135728E-07  0.323E-04    4.26      44.7  T
   8    -67.7389960 -0.706123E-09  0.155E-04    4.26      93.2  T
     SCC iter.                  ...        0 min,  0.098 sec
     gradient                   ...        0 min,  0.083 sec
 * total energy  :   -67.1224377 Eh     change       -0.2033120E-01 Eh
   gradient norm :     0.1205226 Eh/α   predicted    -0.1985549E-01 (  -2.34%)
   displ. norm   :     0.7269761 α      lambda       -0.2099282E-01
   maximum displ.:     0.4727072 α      in ANC's #25, #23, #51, ...

........................................................................
.............................. CYCLE   18 ..............................
........................................................................

 iter      E             dE          RMSdq      gap      omega  full diag
   1    -67.7651176 -0.677651E+02  0.210E-01    4.49       0.0  T
   2    -67.7651958 -0.781383E-04  0.122E-01    4.46       1.0  T
   3    -67.7651975 -0.175625E-05  0.227E-02    4.45       1.0  T
   4    -67.7652012 -0.364178E-05  0.857E-03    4.44       1.7  T
   5    -67.7652017 -0.514647E-06  0.478E-03    4.45       3.0  T
   6    -67.7652017 -0.454551E-07  0.126E-03    4.45      11.5  T
   7    -67.7652018 -0.133311E-07  0.455E-04    4.45      31.7  T
   8    -67.7652018 -0.859345E-09  0.167E-04    4.45      86.3  T
     SCC iter.                  ...        0 min,  0.116 sec
     gradient                   ...        0 min,  0.093 sec
 * total energy  :   -67.1399235 Eh     change       -0.1748573E-01 Eh
   gradient norm :     0.1068827 Eh/α   predicted    -0.1604372E-01 (  -8.25%)
   displ. norm   :     0.7265055 α      lambda       -0.1944117E-01
   maximum displ.:     0.5314441 α      in ANC's #25, #51, #23, ...

........................................................................
.............................. CYCLE   19 ..............................
........................................................................

 iter      E             dE          RMSdq      gap      omega  full diag
   1    -67.7811698 -0.677812E+02  0.225E-01    4.35       0.0  T
   2    -67.7815983 -0.428417E-03  0.119E-01    4.40       1.0  T
   3    -67.7816069 -0.866733E-05  0.504E-02    4.41       1.0  T
   4    -67.7816081 -0.113012E-05  0.464E-03    4.42       3.1  T
   5    -67.7816082 -0.855485E-07  0.295E-03    4.41       4.9  T
   6    -67.7816082 -0.214478E-07  0.914E-04    4.42      15.8  T
   7    -67.7816082 -0.541353E-08  0.444E-04    4.42      32.5  T
     SCC iter.                  ...        0 min,  0.062 sec
     gradient                   ...        0 min,  0.054 sec
 * total energy  :   -67.1549115 Eh     change       -0.1498806E-01 Eh
   gradient norm :     0.0992011 Eh/α   predicted    -0.1485120E-01 (  -0.91%)
   displ. norm   :     0.6656341 α      lambda       -0.1623440E-01
   maximum displ.:     0.3975560 α      in ANC's #25, #51, #23, ...

........................................................................
.............................. CYCLE   20 ..............................
........................................................................

 iter      E             dE          RMSdq      gap      omega  full diag
   1    -67.7992844 -0.677993E+02  0.210E-01    4.83       0.0  T
   2    -67.7996469 -0.362444E-03  0.117E-01    4.78       1.0  T
   3    -67.7996594 -0.125352E-04  0.513E-02    4.80       1.0  T
   4    -67.7996686 -0.918558E-05  0.142E-02    4.77       1.0  T
   5    -67.7996710 -0.233929E-05  0.419E-03    4.77       3.4  T
   6    -67.7996710 -0.348641E-07  0.147E-03    4.77       9.8  T
   7    -67.7996710 -0.957719E-08  0.515E-04    4.77      28.0  T
   8    -67.7996710 -0.916174E-09  0.168E-04    4.77      86.2  T
     SCC iter.                  ...        0 min,  0.142 sec
     gradient                   ...        0 min,  0.061 sec
 * total energy  :   -67.1661495 Eh     change       -0.1123794E-01 Eh
   gradient norm :     0.0875965 Eh/α   predicted    -0.1171370E-01 (   4.23%)
   displ. norm   :     0.6036336 α      lambda       -0.1067014E-01
   maximum displ.:     0.3993694 α      in ANC's #25, #51, #46, ...
 * RMSD in coord.:     1.5547988 α      energy gain  -0.3976270E+01 Eh

generating ANC from exact Hessian ...
Using Lindh-Hessian (1995)
 Shifting diagonal of input Hessian by    1.0357730822496313E-002
 Lowest  eigenvalues of input Hessian
    0.010000    0.010078    0.010231    0.000000    0.000000    0.000000
    0.000000    0.000000    0.000000    0.010472    0.010523    0.010779
    0.010807    0.010849    0.010929    0.011023    0.011075    0.011169
 Highest eigenvalues
    1.422053    1.422876    1.427960    1.428832    1.806722    2.246790


........................................................................
.............................. CYCLE   21 ..............................
........................................................................

 iter      E             dE          RMSdq      gap      omega  full diag
   1    -67.8043942 -0.678044E+02  0.174E-01    4.68       0.0  T
   2    -67.8044843 -0.901172E-04  0.991E-02    4.72       1.0  T
   3    -67.8044874 -0.306786E-05  0.227E-02    4.74       1.0  T
   4    -67.8044883 -0.949329E-06  0.351E-03    4.73       4.1  T
   5    -67.8044884 -0.694591E-07  0.188E-03    4.73       7.7  T
   6    -67.8044884 -0.748275E-08  0.682E-04    4.73      21.2  T
   7    -67.8044884 -0.327033E-08  0.246E-04    4.73      58.7  T
     SCC iter.                  ...        0 min,  0.102 sec
     gradient                   ...        0 min,  0.045 sec
 * total energy  :   -67.1731932 Eh     change       -0.7043709E-02 Eh
   gradient norm :     0.0841074 Eh/α   predicted     0.0000000E+00 (-100.00%)
   displ. norm   :     0.4604493 α      lambda       -0.1867238E-01
   maximum displ.:     0.3178959 α      in ANC's #37, #55, #39, ...

........................................................................
.............................. CYCLE   22 ..............................
........................................................................

 iter      E             dE          RMSdq      gap      omega  full diag
   1    -67.8320255 -0.678320E+02  0.149E-01    4.82       0.0  T
   2    -67.8320501 -0.246130E-04  0.878E-02    4.79       1.0  T
   3    -67.8320523 -0.216656E-05  0.162E-02    4.76       1.0  T
   4    -67.8320531 -0.764515E-06  0.642E-03    4.76       2.2  T
   5    -67.8320532 -0.131070E-06  0.254E-03    4.76       5.7  T
   6    -67.8320532 -0.326320E-07  0.894E-04    4.76      16.2  T
   7    -67.8320532 -0.458795E-08  0.343E-04    4.76      42.1  T
     SCC iter.                  ...        0 min,  0.098 sec
     gradient                   ...        0 min,  0.096 sec
 * total energy  :   -67.1858555 Eh     change       -0.1266228E-01 Eh
   gradient norm :     0.0417097 Eh/α   predicted    -0.1131622E-01 ( -10.63%)
   displ. norm   :     0.3491018 α      lambda       -0.5947120E-02
   maximum displ.:     0.2009296 α      in ANC's #37, #39, #14, ...

........................................................................
.............................. CYCLE   23 ..............................
........................................................................

 iter      E             dE          RMSdq      gap      omega  full diag
   1    -67.8462738 -0.678463E+02  0.867E-02    4.73       0.0  T
   2    -67.8463023 -0.284739E-04  0.487E-02    4.73       1.0  T
   3    -67.8463037 -0.136918E-05  0.189E-02    4.71       1.0  T
   4    -67.8463057 -0.203341E-05  0.505E-03    4.72       2.9  T
   5    -67.8463060 -0.249675E-06  0.230E-03    4.72       6.3  T
   6    -67.8463060 -0.193942E-07  0.649E-04    4.72      22.3  T
   7    -67.8463060 -0.270947E-08  0.300E-04    4.72      48.1  T
     SCC iter.                  ...        0 min,  0.114 sec
     gradient                   ...        0 min,  0.050 sec
 * total energy  :   -67.1898250 Eh     change       -0.3969497E-02 Eh
   gradient norm :     0.0133137 Eh/α   predicted    -0.3335955E-02 ( -15.96%)
   displ. norm   :     0.3677755 α      lambda       -0.2158206E-02
   maximum displ.:     0.1981238 α      in ANC's #37, #14, #3, ...

........................................................................
.............................. CYCLE   24 ..............................
........................................................................

 iter      E             dE          RMSdq      gap      omega  full diag
   1    -67.8477015 -0.678477E+02  0.632E-02    4.66       0.0  T
   2    -67.8477176 -0.160995E-04  0.360E-02    4.67       1.0  T
   3    -67.8477179 -0.350795E-06  0.143E-02    4.66       1.0  T
   4    -67.8477195 -0.154531E-05  0.344E-03    4.67       4.2  T
   5    -67.8477195 -0.778708E-07  0.194E-03    4.67       7.4  T
   6    -67.8477195 -0.329179E-08  0.361E-04    4.67      40.0  T
   7    -67.8477195 -0.798778E-09  0.105E-04    4.67     138.0  T
     SCC iter.                  ...        0 min,  0.060 sec
     gradient                   ...        0 min,  0.050 sec
 * total energy  :   -67.1914564 Eh     change       -0.1631456E-02 Eh
   gradient norm :     0.0113063 Eh/α   predicted    -0.1225065E-02 ( -24.91%)
   displ. norm   :     0.4880401 α      lambda       -0.1695020E-02
   maximum displ.:     0.2352409 α      in ANC's #37, #14, #6, ...

........................................................................
.............................. CYCLE   25 ..............................
........................................................................

 iter      E             dE          RMSdq      gap      omega  full diag
   1    -67.8463427 -0.678463E+02  0.738E-02    4.62       0.0  T
   2    -67.8463546 -0.118624E-04  0.431E-02    4.63       1.0  T
   3    -67.8463544  0.147107E-06  0.123E-02    4.62       1.2  T
   4    -67.8463560 -0.156425E-05  0.433E-03    4.63       3.3  T
   5    -67.8463561 -0.915398E-07  0.257E-03    4.63       5.6  T
   6    -67.8463561 -0.371513E-08  0.353E-04    4.63      40.9  T
   7    -67.8463561 -0.774534E-09  0.117E-04    4.63     123.5  T
     SCC iter.                  ...        0 min,  0.075 sec
     gradient                   ...        0 min,  0.058 sec
 * total energy  :   -67.1927588 Eh     change       -0.1302413E-02 Eh
   gradient norm :     0.0139459 Eh/α   predicted    -0.1049374E-02 ( -19.43%)
   displ. norm   :     0.5648202 α      lambda       -0.1434516E-02
   maximum displ.:     0.2521929 α      in ANC's #37, #6, #14, ...

........................................................................
.............................. CYCLE   26 ..............................
........................................................................

 iter      E             dE          RMSdq      gap      omega  full diag
   1    -67.8451586 -0.678452E+02  0.749E-02    4.61       0.0  T
   2    -67.8451653 -0.675012E-05  0.444E-02    4.61       1.0  T
   3    -67.8451659 -0.557621E-06  0.772E-03    4.61       1.9  T
   4    -67.8451661 -0.216588E-06  0.351E-03    4.62       4.1  T
   5    -67.8451662 -0.466879E-07  0.192E-03    4.62       7.5  T
   6    -67.8451662 -0.965069E-08  0.318E-04    4.62      45.3  T
   7    -67.8451662 -0.459082E-09  0.130E-04    4.62     111.4  T
     SCC iter.                  ...        0 min,  0.106 sec
     gradient                   ...        0 min,  0.049 sec
 * total energy  :   -67.1939776 Eh     change       -0.1218729E-02 Eh
   gradient norm :     0.0172810 Eh/α   predicted    -0.9461386E-03 ( -22.37%)
   displ. norm   :     0.6263562 α      lambda       -0.1567202E-02
   maximum displ.:     0.2736073 α      in ANC's #6, #37, #16, ...

........................................................................
.............................. CYCLE   27 ..............................
........................................................................

 iter      E             dE          RMSdq      gap      omega  full diag
   1    -67.8451786 -0.678452E+02  0.774E-02    4.64       0.0  T
   2    -67.8451853 -0.672532E-05  0.461E-02    4.63       1.0  T
   3    -67.8451849  0.429944E-06  0.966E-03    4.64       1.5  T
   4    -67.8451863 -0.139155E-05  0.350E-03    4.64       4.1  T
   5    -67.8451864 -0.465383E-07  0.137E-03    4.64      10.5  T
   6    -67.8451864 -0.249425E-08  0.337E-04    4.64      42.8  T
   7    -67.8451864 -0.538009E-09  0.170E-04    4.64      85.1  T
     SCC iter.                  ...        0 min,  0.114 sec
     gradient                   ...        0 min,  0.048 sec
 * total energy  :   -67.1951576 Eh     change       -0.1180058E-02 Eh
   gradient norm :     0.0156585 Eh/α   predicted    -0.1091025E-02 (  -7.54%)
   displ. norm   :     0.4691595 α      lambda       -0.1096835E-02
   maximum displ.:     0.2193745 α      in ANC's #6, #16, #37, ...

........................................................................
.............................. CYCLE   28 ..............................
........................................................................

 iter      E             dE          RMSdq      gap      omega  full diag
   1    -67.8486165 -0.678486E+02  0.574E-02    4.70       0.0  T
   2    -67.8486271 -0.106865E-04  0.338E-02    4.69       1.0  T
   3    -67.8486271  0.627654E-07  0.133E-02    4.70       1.1  T
   4    -67.8486289 -0.183681E-05  0.202E-03    4.70       7.1  T
   5    -67.8486289 -0.166306E-07  0.108E-03    4.69      13.4  T
   6    -67.8486289 -0.152889E-08  0.509E-04    4.69      28.3  T
   7    -67.8486289 -0.501416E-09  0.911E-05    4.69     158.5  T
     SCC iter.                  ...        0 min,  0.124 sec
     gradient                   ...        0 min,  0.088 sec
 * total energy  :   -67.1959140 Eh     change       -0.7564333E-03 Eh
   gradient norm :     0.0125355 Eh/α   predicted    -0.6691311E-03 ( -11.54%)
   displ. norm   :     0.3006319 α      lambda       -0.4571415E-03
   maximum displ.:     0.1505313 α      in ANC's #6, #7, #12, ...

........................................................................
.............................. CYCLE   29 ..............................
........................................................................

 iter      E             dE          RMSdq      gap      omega  full diag
   1    -67.8500351 -0.678500E+02  0.353E-02    4.70       0.0  T
   2    -67.8500422 -0.709789E-05  0.203E-02    4.70       1.0  T
   3    -67.8500426 -0.413317E-06  0.904E-03    4.71       1.6  T
   4    -67.8500430 -0.363715E-06  0.255E-03    4.70       5.7  T
   5    -67.8500430 -0.473805E-07  0.144E-03    4.70      10.0  T
   6    -67.8500430 -0.124206E-08  0.552E-04    4.70      26.2  T
   7    -67.8500430 -0.516167E-09  0.973E-05    4.70     148.4  T
     SCC iter.                  ...        0 min,  0.055 sec
     gradient                   ...        0 min,  0.054 sec
 * total energy  :   -67.1962533 Eh     change       -0.3392087E-03 Eh
   gradient norm :     0.0066890 Eh/α   predicted    -0.2492292E-03 ( -26.53%)
   displ. norm   :     0.3061279 α      lambda       -0.3592047E-03
   maximum displ.:     0.1494695 α      in ANC's #7, #6, #3, ...

........................................................................
.............................. CYCLE   30 ..............................
........................................................................

 iter      E             dE          RMSdq      gap      omega  full diag
   1    -67.8514311 -0.678514E+02  0.363E-02    4.72       0.0  T
   2    -67.8514378 -0.678013E-05  0.214E-02    4.72       1.0  T
   3    -67.8514382 -0.353702E-06  0.925E-03    4.73       1.6  T
   4    -67.8514386 -0.380357E-06  0.309E-03    4.72       4.7  T
   5    -67.8514386 -0.526859E-07  0.187E-03    4.72       7.7  T
   6    -67.8514386 -0.105996E-08  0.363E-04    4.72      39.8  T
   7    -67.8514386 -0.805159E-09  0.866E-05    4.72     166.7  T
     SCC iter.                  ...        0 min,  0.080 sec
     gradient                   ...        0 min,  0.050 sec
 * total energy  :   -67.1964981 Eh     change       -0.2448441E-03 Eh
   gradient norm :     0.0061129 Eh/α   predicted    -0.1964344E-03 ( -19.77%)
   displ. norm   :     0.2690071 α      lambda       -0.1958243E-03
   maximum displ.:     0.1244064 α      in ANC's #7, #6, #3, ...

........................................................................
.............................. CYCLE   31 ..............................
........................................................................

 iter      E             dE          RMSdq      gap      omega  full diag
   1    -67.8499885 -0.678500E+02  0.290E-02    4.69       0.0  T
   2    -67.8499904 -0.185686E-05  0.177E-02    4.69       1.0  T
   3    -67.8499905 -0.117165E-06  0.420E-03    4.70       3.4  T
   4    -67.8499906 -0.131144E-06  0.210E-03    4.70       6.9  T
   5    -67.8499906 -0.105846E-07  0.139E-03    4.70      10.4  T
   6    -67.8499907 -0.136916E-08  0.303E-04    4.70      47.6  T
   7    -67.8499907 -0.835513E-09  0.537E-05    4.70     268.7  T
     SCC iter.                  ...        0 min,  0.122 sec
     gradient                   ...        0 min,  0.062 sec
 * total energy  :   -67.1966294 Eh     change       -0.1313274E-03 Eh
   gradient norm :     0.0075537 Eh/α   predicted    -0.1050016E-03 ( -20.05%)
   displ. norm   :     0.2303821 α      lambda       -0.1686826E-03
   maximum displ.:     0.1151516 α      in ANC's #7, #3, #5, ...

........................................................................
.............................. CYCLE   32 ..............................
........................................................................

 iter      E             dE          RMSdq      gap      omega  full diag
   1    -67.8509812 -0.678510E+02  0.279E-02    4.73       0.0  T
   2    -67.8509821 -0.898901E-06  0.171E-02    4.72       1.0  T
   3    -67.8509821 -0.123966E-07  0.413E-03    4.72       3.5  T
   4    -67.8509823 -0.168397E-06  0.250E-03    4.72       5.8  T
   5    -67.8509823 -0.657927E-08  0.122E-03    4.72      11.9  T
   6    -67.8509823 -0.801492E-09  0.140E-04    4.72     103.2  T
   7    -67.8509823 -0.280551E-09  0.489E-05    4.72     295.5  T
     SCC iter.                  ...        0 min,  0.058 sec
     gradient                   ...        0 min,  0.078 sec
 * total energy  :   -67.1967412 Eh     change       -0.1118129E-03 Eh
   gradient norm :     0.0049198 Eh/α   predicted    -0.8881838E-04 ( -20.57%)
   displ. norm   :     0.1783262 α      lambda       -0.1158120E-03
   maximum displ.:     0.0870986 α      in ANC's #5, #3, #7, ...

........................................................................
.............................. CYCLE   33 ..............................
........................................................................

 iter      E             dE          RMSdq      gap      omega  full diag
   1    -67.8500911 -0.678501E+02  0.251E-02    4.71       0.0  T
   2    -67.8500922 -0.111985E-05  0.150E-02    4.71       1.0  T
   3    -67.8500921  0.504590E-07  0.399E-03    4.71       3.6  T
   4    -67.8500923 -0.205824E-06  0.121E-03    4.71      11.9  T
   5    -67.8500923 -0.703477E-08  0.601E-04    4.71      24.0  T
   6    -67.8500923 -0.327546E-09  0.718E-05    4.71     200.9  T
     SCC iter.                  ...        0 min,  0.101 sec
     gradient                   ...        0 min,  0.046 sec
 * total energy  :   -67.1968249 Eh     change       -0.8361919E-04 Eh
   gradient norm :     0.0026299 Eh/α   predicted    -0.5974778E-04 ( -28.55%)
   displ. norm   :     0.1363539 α      lambda       -0.7945664E-04
   maximum displ.:     0.0864422 α      in ANC's #5, #3, #20, ...

........................................................................
.............................. CYCLE   34 ..............................
........................................................................

 iter      E             dE          RMSdq      gap      omega  full diag
   1    -67.8500803 -0.678501E+02  0.203E-02    4.72       0.0  T
   2    -67.8500810 -0.734733E-06  0.121E-02    4.72       1.2  T
   3    -67.8500810 -0.294900E-07  0.253E-03    4.71       5.7  T
   4    -67.8500811 -0.535037E-07  0.719E-04    4.72      20.1  T
   5    -67.8500811 -0.630358E-08  0.319E-04    4.72      45.2  T
     SCC iter.                  ...        0 min,  0.087 sec
     gradient                   ...        0 min,  0.050 sec
 * total energy  :   -67.1968802 Eh     change       -0.5539063E-04 Eh
   gradient norm :     0.0027479 Eh/α   predicted    -0.4046970E-04 ( -26.94%)
   displ. norm   :     0.1162963 α      lambda       -0.5295945E-04
   maximum displ.:     0.0720048 α      in ANC's #5, #3, #20, ...

........................................................................
.............................. CYCLE   35 ..............................
........................................................................

 iter      E             dE          RMSdq      gap      omega  full diag
   1    -67.8497893 -0.678498E+02  0.154E-02    4.72       0.0  T
   2    -67.8497896 -0.262196E-06  0.927E-03    4.72       1.6  T
   3    -67.8497896 -0.344573E-07  0.186E-03    4.72       7.8  T
   4    -67.8497896 -0.124909E-07  0.121E-03    4.72      11.9  T
   5    -67.8497896 -0.120157E-08  0.524E-04    4.72      27.5  T
   6    -67.8497896 -0.794358E-09  0.978E-05    4.72     147.7  T
     SCC iter.                  ...        0 min,  0.104 sec
     gradient                   ...        0 min,  0.099 sec
 * total energy  :   -67.1969216 Eh     change       -0.4134242E-04 Eh
   gradient norm :     0.0034301 Eh/α   predicted    -0.2684438E-04 ( -35.07%)
   displ. norm   :     0.1625741 α      lambda       -0.6984320E-04
   maximum displ.:     0.0999527 α      in ANC's #5, #3, #20, ...

........................................................................
.............................. CYCLE   36 ..............................
........................................................................

 iter      E             dE          RMSdq      gap      omega  full diag
   1    -67.8503510 -0.678504E+02  0.173E-02    4.72       0.0  T
   2    -67.8503514 -0.431783E-06  0.106E-02    4.72       1.4  T
   3    -67.8503515 -0.434210E-07  0.263E-03    4.72       5.5  T
   4    -67.8503515 -0.227831E-07  0.179E-03    4.72       8.1  T
   5    -67.8503515 -0.151519E-08  0.710E-04    4.72      20.3  T
   6    -67.8503515 -0.185494E-08  0.948E-05    4.72     152.2  T
     SCC iter.                  ...        0 min,  0.085 sec
     gradient                   ...        0 min,  0.050 sec
 * total energy  :   -67.1969744 Eh     change       -0.5279226E-04 Eh
   gradient norm :     0.0036924 Eh/α   predicted    -0.3584516E-04 ( -32.10%)
   displ. norm   :     0.2736213 α      lambda       -0.9356454E-04
   maximum displ.:     0.1640025 α      in ANC's #3, #5, #20, ...

........................................................................
.............................. CYCLE   37 ..............................
........................................................................

 iter      E             dE          RMSdq      gap      omega  full diag
   1    -67.8494825 -0.678495E+02  0.306E-02    4.72       0.0  T
   2    -67.8494835 -0.100377E-05  0.185E-02    4.72       1.0  T
   3    -67.8494836 -0.108134E-06  0.431E-03    4.73       3.3  T
   4    -67.8494837 -0.978209E-07  0.283E-03    4.72       5.1  T
   5    -67.8494837 -0.752740E-08  0.112E-03    4.72      12.9  T
   6    -67.8494837 -0.344545E-08  0.129E-04    4.72     111.7  T
   7    -67.8494837 -0.257785E-09  0.552E-05    4.72     261.5  T
     SCC iter.                  ...        0 min,  0.112 sec
     gradient                   ...        0 min,  0.062 sec
 * total energy  :   -67.1970350 Eh     change       -0.6062846E-04 Eh
   gradient norm :     0.0047247 Eh/α   predicted    -0.5028930E-04 ( -17.05%)
   displ. norm   :     0.1800893 α      lambda       -0.7127740E-04
   maximum displ.:     0.1167242 α      in ANC's #3, #5, #20, ...

........................................................................
.............................. CYCLE   38 ..............................
........................................................................

 iter      E             dE          RMSdq      gap      omega  full diag
   1    -67.8502500 -0.678503E+02  0.224E-02    4.72       0.0  T
   2    -67.8502507 -0.633442E-06  0.135E-02    4.72       1.1  T
   3    -67.8502507 -0.614954E-07  0.293E-03    4.73       4.9  T
   4    -67.8502508 -0.604954E-07  0.170E-03    4.73       8.5  T
   5    -67.8502508 -0.505550E-08  0.863E-04    4.73      16.7  T
   6    -67.8502508 -0.828067E-09  0.911E-05    4.73     158.4  T
     SCC iter.                  ...        0 min,  0.050 sec
     gradient                   ...        0 min,  0.049 sec
 * total energy  :   -67.1970963 Eh     change       -0.6128546E-04 Eh
   gradient norm :     0.0042183 Eh/α   predicted    -0.3679949E-04 ( -39.95%)
   displ. norm   :     0.3847284 α      lambda       -0.1982625E-03
   maximum displ.:     0.2450302 α      in ANC's #3, #5, #22, ...

........................................................................
.............................. CYCLE   39 ..............................
........................................................................

 iter      E             dE          RMSdq      gap      omega  full diag
   1    -67.8508139 -0.678508E+02  0.606E-02    4.73       0.0  T
   2    -67.8508174 -0.350227E-05  0.366E-02    4.73       1.0  T
   3    -67.8508178 -0.403392E-06  0.636E-03    4.73       2.3  T
   4    -67.8508182 -0.397422E-06  0.343E-03    4.73       4.2  T
   5    -67.8508182 -0.273763E-07  0.181E-03    4.73       8.0  T
   6    -67.8508182 -0.294045E-08  0.215E-04    4.73      67.0  T
   7    -67.8508182 -0.552419E-09  0.828E-05    4.73     174.3  T
     SCC iter.                  ...        0 min,  0.092 sec
     gradient                   ...        0 min,  0.092 sec
 * total energy  :   -67.1972118 Eh     change       -0.1155027E-03 Eh
   gradient norm :     0.0146072 Eh/α   predicted    -0.1138066E-03 (  -1.47%)
   displ. norm   :     0.1733524 α      lambda       -0.2400236E-03
   maximum displ.:     0.1131929 α      in ANC's #3, #22, #5, ...

........................................................................
.............................. CYCLE   40 ..............................
........................................................................

 iter      E             dE          RMSdq      gap      omega  full diag
   1    -67.8525870 -0.678526E+02  0.426E-02    4.73       0.0  T
   2    -67.8525880 -0.986833E-06  0.249E-02    4.73       1.0  T
   3    -67.8525882 -0.170409E-06  0.236E-03    4.73       6.1  T
   4    -67.8525882 -0.549582E-07  0.120E-03    4.73      12.1  T
   5    -67.8525882 -0.772901E-08  0.630E-04    4.73      22.9  T
   6    -67.8525882 -0.133886E-08  0.274E-04    4.73      52.6  T
     SCC iter.                  ...        0 min,  0.050 sec
     gradient                   ...        0 min,  0.050 sec
 * total energy  :   -67.1973709 Eh     change       -0.1591509E-03 Eh
   gradient norm :     0.0097816 Eh/α   predicted    -0.1236216E-03 ( -22.32%)
   displ. norm   :     0.4552125 α      lambda       -0.3496436E-03
   maximum displ.:     0.2832187 α      in ANC's #3, #5, #22, ...

........................................................................
.............................. CYCLE   41 ..............................
........................................................................

 iter      E             dE          RMSdq      gap      omega  full diag
   1    -67.8509246 -0.678509E+02  0.749E-02    4.72       0.0  T
   2    -67.8509274 -0.282278E-05  0.452E-02    4.72       1.0  T
   3    -67.8509278 -0.387551E-06  0.417E-03    4.72       3.5  T
   4    -67.8509279 -0.106846E-06  0.245E-03    4.72       5.9  T
   5    -67.8509279 -0.336600E-08  0.840E-04    4.72      17.2  T
   6    -67.8509279 -0.440122E-08  0.225E-04    4.72      64.2  T
     SCC iter.                  ...        0 min,  0.085 sec
     gradient                   ...        0 min,  0.098 sec
 * total energy  :   -67.1976807 Eh     change       -0.3097190E-03 Eh
   gradient norm :     0.0145414 Eh/α   predicted    -0.2110528E-03 ( -31.86%)
   displ. norm   :     0.5970255 α      lambda       -0.8276977E-03
   maximum displ.:     0.3132304 α      in ANC's #3, #22, #5, ...

........................................................................
.............................. CYCLE   42 ..............................
........................................................................

 iter      E             dE          RMSdq      gap      omega  full diag
   1    -67.8445278 -0.678445E+02  0.116E-01    4.70       0.0  T
   2    -67.8445392 -0.113795E-04  0.701E-02    4.70       1.0  T
   3    -67.8445401 -0.902690E-06  0.772E-03    4.70       1.9  T
   4    -67.8445411 -0.934999E-06  0.351E-03    4.70       4.1  T
   5    -67.8445411 -0.432878E-07  0.186E-03    4.70       7.8  T
   6    -67.8445411 -0.986874E-08  0.650E-04    4.70      22.2  T
   7    -67.8445411 -0.138712E-08  0.155E-04    4.70      93.3  T
     SCC iter.                  ...        0 min,  0.099 sec
     gradient                   ...        0 min,  0.046 sec
 * total energy  :   -67.1980911 Eh     change       -0.4104537E-03 Eh
   gradient norm :     0.0305638 Eh/α   predicted    -0.5613627E-03 (  36.77%)
   displ. norm   :     0.3473718 α      lambda       -0.1542676E-02
   maximum displ.:     0.1997458 α      in ANC's #37, #28, #44, ...
 * RMSD in coord.:     0.6837578 α      energy gain  -0.3194166E-01 Eh

generating ANC from exact Hessian ...
Using Lindh-Hessian (1995)
 Shifting diagonal of input Hessian by    1.0336765232354788E-002
 Lowest  eigenvalues of input Hessian
    0.010000    0.010024    0.010200    0.000000    0.000000    0.000000
    0.000000    0.000000    0.000000    0.010434    0.010581    0.010615
    0.010821    0.010891    0.010935    0.010990    0.011143    0.011211
 Highest eigenvalues
    1.401002    1.405670    1.421757    1.426234    1.752512    2.303047


........................................................................
.............................. CYCLE   43 ..............................
........................................................................

 iter      E             dE          RMSdq      gap      omega  full diag
   1    -67.8450135 -0.678450E+02  0.792E-02    4.67       0.0  T
   2    -67.8450329 -0.194466E-04  0.462E-02    4.67       1.0  T
   3    -67.8450340 -0.110764E-05  0.177E-02    4.66       1.0  T
   4    -67.8450357 -0.165078E-05  0.837E-03    4.67       1.7  T
   5    -67.8450359 -0.166315E-06  0.399E-03    4.67       3.6  T
   6    -67.8450359 -0.180620E-07  0.549E-04    4.67      26.3  T
   7    -67.8450359 -0.257323E-08  0.267E-04    4.67      54.2  T
     SCC iter.                  ...        0 min,  0.106 sec
     gradient                   ...        0 min,  0.052 sec
 * total energy  :   -67.1985284 Eh     change       -0.4372514E-03 Eh
   gradient norm :     0.0251699 Eh/α   predicted     0.0000000E+00 (-100.00%)
   displ. norm   :     0.2416684 α      lambda       -0.1769927E-02
   maximum displ.:     0.1264872 α      in ANC's #37, #23, #22, ...

........................................................................
.............................. CYCLE   44 ..............................
........................................................................

 iter      E             dE          RMSdq      gap      omega  full diag
   1    -67.8498412 -0.678498E+02  0.128E-01    4.70       0.0  T
   2    -67.8498459 -0.460916E-05  0.757E-02    4.70       1.0  T
   3    -67.8498474 -0.151833E-05  0.801E-03    4.71       1.8  T
   4    -67.8498478 -0.391650E-06  0.482E-03    4.70       3.0  T
   5    -67.8498478 -0.485275E-07  0.174E-03    4.71       8.3  T
   6    -67.8498478 -0.668740E-08  0.354E-04    4.71      40.8  T
   7    -67.8498478 -0.795609E-09  0.158E-04    4.71      91.2  T
     SCC iter.                  ...        0 min,  0.146 sec
     gradient                   ...        0 min,  0.054 sec
 * total energy  :   -67.1999535 Eh     change       -0.1425131E-02 Eh
   gradient norm :     0.0137410 Eh/α   predicted    -0.9366985E-03 ( -34.27%)
   displ. norm   :     0.4647729 α      lambda       -0.1940357E-02
   maximum displ.:     0.2478532 α      in ANC's #23, #22, #37, ...

........................................................................
.............................. CYCLE   45 ..............................
........................................................................

 iter      E             dE          RMSdq      gap      omega  full diag
   1    -67.8493393 -0.678493E+02  0.197E-01    4.74       0.0  T
   2    -67.8493544 -0.150907E-04  0.117E-01    4.74       1.0  T
   3    -67.8493594 -0.503209E-05  0.150E-02    4.75       1.0  T
   4    -67.8493605 -0.112778E-05  0.901E-03    4.74       1.6  T
   5    -67.8493607 -0.184737E-06  0.328E-03    4.75       4.4  T
   6    -67.8493607 -0.387358E-07  0.787E-04    4.75      18.3  T
   7    -67.8493607 -0.332928E-08  0.396E-04    4.75      36.5  T
     SCC iter.                  ...        0 min,  0.127 sec
     gradient                   ...        0 min,  0.053 sec
 * total energy  :   -67.1998008 Eh     change        0.1527150E-03 Eh
   gradient norm :     0.0528174 Eh/α   predicted    -0.1179751E-02 (-872.52%)
   displ. norm   :     0.1836276 α      lambda       -0.3304797E-02
   maximum displ.:     0.1240249 α      in ANC's #37, #21, #49, ...

........................................................................
.............................. CYCLE   46 ..............................
........................................................................

 iter      E             dE          RMSdq      gap      omega  full diag
   1    -67.8558960 -0.678559E+02  0.120E-01    4.75       0.0  T
   2    -67.8559073 -0.112829E-04  0.711E-02    4.74       1.0  T
   3    -67.8559107 -0.332781E-05  0.841E-03    4.74       1.7  T
   4    -67.8559110 -0.342888E-06  0.480E-03    4.74       3.0  T
   5    -67.8559110 -0.488210E-07  0.243E-03    4.74       5.9  T
   6    -67.8559111 -0.548916E-08  0.449E-04    4.74      32.1  T
   7    -67.8559111 -0.296089E-08  0.230E-04    4.74      62.8  T
     SCC iter.                  ...        0 min,  0.113 sec
     gradient                   ...        0 min,  0.094 sec
 * total energy  :   -67.2013265 Eh     change       -0.1525756E-02 Eh
   gradient norm :     0.0162606 Eh/α   predicted    -0.1708119E-02 (  11.95%)
   displ. norm   :     0.2453674 α      lambda       -0.7659378E-03
   maximum displ.:     0.1080068 α      in ANC's #14, #21, #23, ...

........................................................................
.............................. CYCLE   47 ..............................
........................................................................

 iter      E             dE          RMSdq      gap      omega  full diag
   1    -67.8540216 -0.678540E+02  0.615E-02    4.73       0.0  T
   2    -67.8540222 -0.580641E-06  0.365E-02    4.74       1.0  T
   3    -67.8540225 -0.306043E-06  0.294E-03    4.74       4.9  T
   4    -67.8540225 -0.139004E-07  0.116E-03    4.74      12.4  T
   5    -67.8540225 -0.427187E-08  0.420E-04    4.74      34.4  T
   6    -67.8540225 -0.696105E-09  0.144E-04    4.74     100.2  T
     SCC iter.                  ...        0 min,  0.115 sec
     gradient                   ...        0 min,  0.044 sec
 * total energy  :   -67.2020295 Eh     change       -0.7029922E-03 Eh
   gradient norm :     0.0123369 Eh/α   predicted    -0.4060256E-03 ( -42.24%)
   displ. norm   :     0.7468288 α      lambda       -0.2354815E-02
   maximum displ.:     0.3218954 α      in ANC's #14, #21, #5, ...

........................................................................
.............................. CYCLE   48 ..............................
........................................................................

 iter      E             dE          RMSdq      gap      omega  full diag
   1    -67.8403356 -0.678403E+02  0.197E-01    4.70       0.0  T
   2    -67.8403451 -0.948231E-05  0.117E-01    4.71       1.0  T
   3    -67.8403488 -0.365181E-05  0.952E-03    4.72       1.5  T
   4    -67.8403491 -0.321105E-06  0.565E-03    4.72       2.6  T
   5    -67.8403491 -0.633312E-07  0.207E-03    4.72       7.0  T
   6    -67.8403492 -0.149006E-07  0.710E-04    4.72      20.3  T
   7    -67.8403492 -0.411164E-08  0.299E-04    4.72      48.2  T
     SCC iter.                  ...        0 min,  0.166 sec
     gradient                   ...        0 min,  0.101 sec
 * total energy  :   -67.2032194 Eh     change       -0.1189898E-02 Eh
   gradient norm :     0.0349018 Eh/α   predicted    -0.1834113E-02 (  54.14%)
   displ. norm   :     0.1958233 α      lambda       -0.1567465E-02
   maximum displ.:     0.0823963 α      in ANC's #14, #5, #22, ...

........................................................................
.............................. CYCLE   49 ..............................
........................................................................

 iter      E             dE          RMSdq      gap      omega  full diag
   1    -67.8485200 -0.678485E+02  0.702E-02    4.73       0.0  T
   2    -67.8485221 -0.207792E-05  0.415E-02    4.73       1.0  T
   3    -67.8485230 -0.878301E-06  0.447E-03    4.73       3.2  T
   4    -67.8485231 -0.588556E-07  0.253E-03    4.73       5.7  T
   5    -67.8485231 -0.107122E-07  0.127E-03    4.73      11.4  T
   6    -67.8485231 -0.523350E-08  0.269E-04    4.73      53.7  T
   7    -67.8485231 -0.472582E-09  0.124E-04    4.73     116.5  T
     SCC iter.                  ...        0 min,  0.227 sec
     gradient                   ...        0 min,  0.086 sec
 * total energy  :   -67.2042076 Eh     change       -0.9881738E-03 Eh
   gradient norm :     0.0199309 Eh/α   predicted    -0.8137882E-03 ( -17.65%)
   displ. norm   :     0.4267207 α      lambda       -0.1472593E-02
   maximum displ.:     0.2149243 α      in ANC's #14, #5, #6, ...

........................................................................
.............................. CYCLE   50 ..............................
........................................................................

 iter      E             dE          RMSdq      gap      omega  full diag
   1    -67.8540447 -0.678540E+02  0.832E-02    4.78       0.0  T
   2    -67.8540492 -0.450025E-05  0.506E-02    4.77       1.0  T
   3    -67.8540496 -0.366473E-06  0.762E-03    4.78       1.9  T
   4    -67.8540501 -0.523960E-06  0.417E-03    4.77       3.5  T
   5    -67.8540501 -0.120306E-07  0.131E-03    4.77      11.0  T
   6    -67.8540502 -0.112874E-07  0.261E-04    4.77      55.4  T
   7    -67.8540502 -0.428372E-09  0.974E-05    4.77     148.2  T
     SCC iter.                  ...        0 min,  0.197 sec
     gradient                   ...        0 min,  0.084 sec
 * total energy  :   -67.2053272 Eh     change       -0.1119619E-02 Eh
   gradient norm :     0.0118288 Eh/α   predicted    -0.8703842E-03 ( -22.26%)
   displ. norm   :     0.6812945 α      lambda       -0.1908939E-02
   maximum displ.:     0.2938927 α      in ANC's #5, #14, #6, ...

........................................................................
.............................. CYCLE   51 ..............................
........................................................................

 iter      E             dE          RMSdq      gap      omega  full diag
   1    -67.8533619 -0.678534E+02  0.158E-01    4.81       0.0  T
   2    -67.8533803 -0.183382E-04  0.932E-02    4.81       1.0  T
   3    -67.8533823 -0.201376E-05  0.919E-03    4.82       1.6  T
   4    -67.8533831 -0.795686E-06  0.474E-03    4.82       3.0  T
   5    -67.8533831 -0.467866E-07  0.260E-03    4.82       5.6  T
   6    -67.8533831 -0.137719E-07  0.848E-04    4.82      17.0  T
   7    -67.8533831 -0.521537E-08  0.209E-04    4.82      68.9  T
     SCC iter.                  ...        0 min,  0.678 sec
     gradient                   ...        0 min,  0.148 sec
 * total energy  :   -67.2064551 Eh     change       -0.1127899E-02 Eh
   gradient norm :     0.0251312 Eh/α   predicted    -0.1397502E-02 (  23.90%)
   displ. norm   :     0.4857381 α      lambda       -0.1757122E-02
   maximum displ.:     0.1862621 α      in ANC's #6, #5, #14, ...

........................................................................
.............................. CYCLE   52 ..............................
........................................................................

 iter      E             dE          RMSdq      gap      omega  full diag
   1    -67.8508790 -0.678509E+02  0.103E-01    4.81       0.0  T
   2    -67.8508884 -0.932728E-05  0.617E-02    4.82       1.0  T
   3    -67.8508901 -0.170850E-05  0.664E-03    4.82       2.2  T
   4    -67.8508904 -0.278020E-06  0.316E-03    4.82       4.6  T
   5    -67.8508904 -0.226438E-07  0.155E-03    4.82       9.3  T
   6    -67.8508904 -0.516229E-08  0.366E-04    4.82      39.4  T
   7    -67.8508904 -0.464226E-09  0.170E-04    4.82      85.1  T
     SCC iter.                  ...        0 min,  1.323 sec
     gradient                   ...        0 min,  0.140 sec
 * total energy  :   -67.2068520 Eh     change       -0.3968702E-03 Eh
   gradient norm :     0.0331842 Eh/α   predicted    -0.1085854E-02 ( 173.60%)
   displ. norm   :     0.3150631 α      lambda       -0.2578360E-02
   maximum displ.:     0.1480525 α      in ANC's #6, #13, #36, ...

........................................................................
.............................. CYCLE   53 ..............................
[...]
           -------------------------------------------------

          ...................................................
          :                      SETUP                      :
          :.................................................:
          :  # basis functions                 102          :
          :  # atomic orbitals                 102          :
          :  # shells                           66          :
          :  # electrons                       114          :
          :  max. iterations                   250          :
          :  Hamiltonian                  GFN2-xTB          :
          :  restarted?                      false          :
          :  GBSA solvation                   true          :
          :  PC potential                    false          :
          :  electronic temp.          300.0000000     K    :
          :  accuracy                    1.0000000          :
          :  -> integral cutoff          0.2500000E+02      :
          :  -> integral neglect         0.1000000E-07      :
          :  -> SCF convergence          0.1000000E-05 Eh   :
          :  -> wf. convergence          0.1000000E-03 e    :
          :  Broyden damping             0.4000000          :
          :  net charge                          2          :
          :  unpaired electrons                  0          :
          ...................................................

 iter      E             dE          RMSdq      gap      omega  full diag
   1    -67.8673046 -0.678673E+02  0.724E-05    4.84       0.0  T
   2    -67.8673046 -0.993339E-11  0.445E-05    4.84     324.4  T
   3    -67.8673046  0.397904E-12  0.157E-05    4.84     921.2  T

   *** convergence criteria satisfied after 3 iterations ***

         #    Occupation            Energy/Eh            Energy/eV
      -------------------------------------------------------------
         1        2.0000           -0.7429206             -20.2159
       ...           ...                  ...                  ...
        51        2.0000           -0.4364368             -11.8760
        52        2.0000           -0.4291106             -11.6767
        53        2.0000           -0.4278553             -11.6425
        54        2.0000           -0.4246306             -11.5548
        55        2.0000           -0.4191743             -11.4063
        56        2.0000           -0.4164808             -11.3330
        57        2.0000           -0.4135767             -11.2540 (HOMO)
        58                         -0.2357351              -6.4147 (LUMO)
        59                         -0.1761739              -4.7939
        60                         -0.0023453              -0.0638
        61                          0.0262956               0.7155
        62                          0.0355023               0.9661
       ...                                ...                  ...
       102                          1.1696343              31.8274
      -------------------------------------------------------------
                  HL-Gap            0.1778416 Eh            4.8393 eV
             Fermi-level           -0.3246559 Eh           -8.8343 eV

 SCC (total)                   0 d,  0 h,  0 min,  0.184 sec
 SCC setup                      ...        0 min,  0.002 sec (  0.848%)
 Dispersion                     ...        0 min,  0.001 sec (  0.323%)
 classical contributions        ...        0 min,  0.000 sec (  0.108%)
 integral evaluation            ...        0 min,  0.012 sec (  6.262%)
 iterations                     ...        0 min,  0.068 sec ( 36.973%)
 molecular gradient             ...        0 min,  0.092 sec ( 50.020%)
 printout                       ...        0 min,  0.008 sec (  4.553%)

         :::::::::::::::::::::::::::::::::::::::::::::::::::::
         ::                     SUMMARY                     ::
         :::::::::::::::::::::::::::::::::::::::::::::::::::::
         :: total energy             -67.219776994156 Eh    ::
         :: total w/o Gsasa/hb       -67.156101526055 Eh    ::
         :: gradient norm              0.000406560696 Eh/a0 ::
         :: HOMO-LUMO gap              4.839315867071 eV    ::
         ::.................................................::
         :: SCC energy               -67.867372510284 Eh    ::
         :: -> isotropic ES            0.569711751082 Eh    ::
         :: -> anisotropic ES         -0.022661238642 Eh    ::
         :: -> anisotropic XC          0.014054889114 Eh    ::
         :: -> dispersion             -0.031462894607 Eh    ::
         :: -> Gsolv                  -0.384353147324 Eh    ::
         ::    -> Gelec               -0.320677679223 Eh    ::
         ::    -> Gsasa                0.001456808764 Eh    ::
         ::    -> Ghb                 -0.066213036563 Eh    ::
         ::    -> Gshift               0.001080759698 Eh    ::
         :: repulsion energy           0.647595516128 Eh    ::
         :: add. restraining           0.000000000000 Eh    ::
         :: total charge               2.000000000000 e     ::
         :::::::::::::::::::::::::::::::::::::::::::::::::::::

           -------------------------------------------------
          |                Property Printout                |
           -------------------------------------------------

    * Orbital Energies and Occupations

         #    Occupation            Energy/Eh            Energy/eV
      -------------------------------------------------------------
         1        2.0000           -0.7429206             -20.2159
       ...           ...                  ...                  ...
        45        2.0000           -0.4624085             -12.5828
        46        2.0000           -0.4620708             -12.5736
        47        2.0000           -0.4589365             -12.4883
        48        2.0000           -0.4586818             -12.4814
        49        2.0000           -0.4497665             -12.2388
        50        2.0000           -0.4463466             -12.1457
        51        2.0000           -0.4364368             -11.8760
        52        2.0000           -0.4291106             -11.6767
        53        2.0000           -0.4278553             -11.6425
        54        2.0000           -0.4246306             -11.5548
        55        2.0000           -0.4191743             -11.4063
        56        2.0000           -0.4164808             -11.3330
        57        2.0000           -0.4135767             -11.2540 (HOMO)
        58                         -0.2357351              -6.4147 (LUMO)
        59                         -0.1761739              -4.7939
        60                         -0.0023453              -0.0638
        61                          0.0262956               0.7155
        62                          0.0355023               0.9661
        63                          0.0435183               1.1842
        64                          0.0936656               2.5488
        65                          0.1006910               2.7399
        66                          0.1069214               2.9095
        67                          0.1127096               3.0670
        68                          0.1158981               3.1537
       ...                                ...                  ...
       102                          1.1696343              31.8274
      -------------------------------------------------------------
                  HL-Gap            0.1778416 Eh            4.8393 eV
             Fermi-level           -0.3246559 Eh           -8.8343 eV

     #   Z          covCN         q      C6AA      α(0)
     1   6 C        3.752    -0.110    22.655     6.788
     2   6 C        3.801    -0.058    21.624     6.621
     3   6 C        3.803    -0.063    21.701     6.632
     4   6 C        3.803    -0.065    21.737     6.638
     5   6 C        3.803    -0.063    21.704     6.633
     6   6 C        3.803    -0.070    21.844     6.654
     7   6 C        3.804    -0.060    21.656     6.625
     8   6 C        3.804    -0.124    22.882     6.810
     9   6 C        2.689     0.360    20.884     7.479
    10   8 O        0.856    -0.486    23.470     6.495
    11   8 O        1.654    -0.397    20.788     6.155
    12   1 H        0.804     0.410     0.467     1.074
    13   1 H        0.925     0.034     2.528     2.486
    14   1 H        0.925     0.032     2.553     2.499
    15   1 H        0.925     0.033     2.551     2.498
    16   1 H        0.924     0.032     2.555     2.500
    17   1 H        0.924     0.030     2.588     2.516
    18   1 H        0.924     0.029     2.597     2.520
    19   1 H        0.924     0.027     2.636     2.539
    20   1 H        0.924     0.035     2.511     2.478
    21   1 H        0.924     0.032     2.561     2.503
    22   1 H        0.924     0.028     2.610     2.526
    23   1 H        0.924     0.025     2.657     2.549
    24   1 H        0.924     0.047     2.363     2.404
    25   1 H        0.924     0.042     2.417     2.431
    26   1 H        0.924     0.036     2.499     2.472
    27   1 H        0.924     0.034     2.535     2.490
    28   1 H        0.924     0.108     1.713     2.047
    29   1 H        0.924     0.106     1.732     2.058
    30  48 Cd       4.090     0.454   190.669    26.504
    31   8 O        2.293    -0.557    24.083     6.628
    32   1 H        0.805     0.402     0.481     1.090
    33   1 H        0.805     0.400     0.484     1.092
    34   8 O        2.246    -0.540    23.706     6.576
    35   1 H        0.804     0.406     0.473     1.080
    36   1 H        0.798     0.436     0.425     1.024
    37   8 O        2.285    -0.558    24.108     6.631
    38   1 H        0.805     0.400     0.485     1.094
    39   1 H        0.805     0.402     0.480     1.088
    40   8 O        2.303    -0.546    23.835     6.594
    41   1 H        0.805     0.399     0.487     1.096
    42   1 H        0.806     0.394     0.496     1.106
    43   8 O        2.312    -0.541    23.726     6.579
    44   1 H        0.805     0.405     0.475     1.082
    45   1 H        0.806     0.395     0.493     1.102
    46   8 O        2.298    -0.546    23.837     6.594
    47   1 H        0.805     0.403     0.480     1.088
    48   1 H        0.806     0.404     0.477     1.084

 Mol. C6AA /au·bohr⁶  :      16756.134010
 Mol. C8AA /au·bohr⁸  :     426266.304589
 Mol. α(0) /au        :        195.251069


Wiberg/Mayer (AO) data.
largest (>0.10) Wiberg bond orders for each atom

 ---------------------------------------------------------------------------
     #   Z sym  total        # sym  WBO       # sym  WBO       # sym  WBO
 ---------------------------------------------------------------------------
     1   6 C    3.996 --     2 C    1.019    15 H    0.988    13 H    0.988
                            14 H    0.987
     2   6 C    3.997 --     1 C    1.019     3 C    1.008    17 H    0.979
                            16 H    0.978
     3   6 C    3.997 --     2 C    1.008     4 C    1.007    19 H    0.978
                            18 H    0.977
     4   6 C    3.997 --     3 C    1.007     5 C    1.007    21 H    0.978
                            20 H    0.977
     5   6 C    3.996 --     6 C    1.007     4 C    1.007    23 H    0.978
                            22 H    0.977
     6   6 C    3.995 --     7 C    1.007     5 C    1.007    25 H    0.977
                            24 H    0.975
     7   6 C    3.995 --     8 C    1.008     6 C    1.007    27 H    0.978
                            26 H    0.976
     8   6 C    3.990 --     7 C    1.008     9 C    0.992    28 H    0.943
                            29 H    0.941
     9   6 C    3.914 --    10 O    1.720    11 O    1.157     8 C    0.992
    10   8 O    1.991 --     9 C    1.720    11 O    0.157
    11   8 O    2.205 --     9 C    1.157    36 H    0.723    10 O    0.157
    12   1 H    0.832 --    34 O    0.820
    13   1 H    0.999 --     1 C    0.988
    14   1 H    0.999 --     1 C    0.987
    15   1 H    0.999 --     1 C    0.988
    16   1 H    0.999 --     2 C    0.978
    17   1 H    0.999 --     2 C    0.979
    18   1 H    0.999 --     3 C    0.977
    19   1 H    0.999 --     3 C    0.978
    20   1 H    0.999 --     4 C    0.977
    21   1 H    0.999 --     4 C    0.978
    22   1 H    0.999 --     5 C    0.977
    23   1 H    0.999 --     5 C    0.978
    24   1 H    0.998 --     6 C    0.975
    25   1 H    0.998 --     6 C    0.977
    26   1 H    0.999 --     7 C    0.976
    27   1 H    0.999 --     7 C    0.978
    28   1 H    0.988 --     8 C    0.943
    29   1 H    0.989 --     8 C    0.941
    30  48 Cd   2.144 --    43 O    0.347    46 O    0.341    40 O    0.337
                            31 O    0.328    37 O    0.325    34 O    0.305
    31   8 O    2.086 --    33 H    0.828    32 H    0.827    30 Cd   0.328
    32   1 H    0.838 --    31 O    0.827
    33   1 H    0.840 --    31 O    0.828
    34   8 O    2.138 --    35 H    0.823    12 H    0.820    30 Cd   0.305
    35   1 H    0.835 --    34 O    0.823
    36   1 H    0.810 --    11 O    0.723
    37   8 O    2.085 --    38 H    0.830    39 H    0.827    30 Cd   0.325
    38   1 H    0.840 --    37 O    0.830
    39   1 H    0.838 --    37 O    0.827
    40   8 O    2.111 --    41 H    0.830    42 H    0.816    30 Cd   0.337
    41   1 H    0.841 --    40 O    0.830
    42   1 H    0.845 --    40 O    0.816
    43   8 O    2.120 --    44 H    0.825    45 H    0.823    30 Cd   0.347
    44   1 H    0.836 --    43 O    0.825
    45   1 H    0.844 --    43 O    0.823
    46   8 O    2.112 --    47 H    0.828    48 H    0.826    30 Cd   0.341
    47   1 H    0.838 --    46 O    0.828
    48   1 H    0.837 --    46 O    0.826
 ---------------------------------------------------------------------------

Topologies differ in total number of bonds
Writing topology from bond orders to xtbtopo.mol

molecular dipole:
                 x           y           z       tot (Debye)
 q only:       33.236      14.031       0.181
   full:       33.206      13.986       0.266      91.583
molecular quadrupole (traceless):
                xx          xy          yy          xz          yz          zz
 q only:      518.086     328.736    -201.579      10.927       5.360    -316.507
  q+dip:      521.480     331.093    -203.985      14.169       7.150    -317.495
   full:      522.158     331.354    -204.025      13.830       7.090    -318.134

           -------------------------------------------------
          |                Geometry Summary                 |
           -------------------------------------------------

      molecular mass/u    :      378.7416428
   center of mass at/Å    :        5.6302818       1.7599816       0.0628623
  moments of inertia/u·Å² :        0.6618075E+03   0.8392847E+04   0.8656940E+04
rotational constants/cm⁻¹ :        0.2547211E-01   0.2008571E-02   0.1947297E-02

 * 44 selected distances

     #   Z          #   Z                                           value/Å
     1   6 C        2   6 C                                       1.5240650
     2   6 C        3   6 C                                       1.5270400
     3   6 C        4   6 C                                       1.5265585
     4   6 C        5   6 C                                       1.5272336
     5   6 C        6   6 C                                       1.5263365
     6   6 C        7   6 C                                       1.5268114
     7   6 C        8   6 C                                       1.5264798
     9   6 C       10   8 O                                       1.2099640
     9   6 C       11   8 O                                       1.3329140
     1   6 C       13   1 H                                       1.0880618
     1   6 C       14   1 H                                       1.0875064
     1   6 C       15   1 H                                       1.0879987
     2   6 C       16   1 H                                       1.0924981
     2   6 C       17   1 H                                       1.0924024
     3   6 C       18   1 H                                       1.0930409
     3   6 C       19   1 H                                       1.0928304
     4   6 C       20   1 H                                       1.0926563
     4   6 C       21   1 H                                       1.0923958
     5   6 C       22   1 H                                       1.0930576
     5   6 C       23   1 H                                       1.0926353
     6   6 C       24   1 H                                       1.0921459
     6   6 C       25   1 H                                       1.0917130
     7   6 C       26   1 H                                       1.0927366
     7   6 C       27   1 H                                       1.0919506
     8   6 C       28   1 H                                       1.0918900
     8   6 C       29   1 H                                       1.0917505
    30  48 Cd      31   8 O                                       2.1557448
    31   8 O       32   1 H                                       0.9669479
    31   8 O       33   1 H                                       0.9664068 (min)
    12   1 H       34   8 O                                       0.9702754
    30  48 Cd      34   8 O                                       2.2325485 (max)
    34   8 O       35   1 H                                       0.9702278
    30  48 Cd      37   8 O                                       2.1710708
    37   8 O       38   1 H                                       0.9665287
    37   8 O       39   1 H                                       0.9669072
    30  48 Cd      40   8 O                                       2.1321499
    40   8 O       41   1 H                                       0.9666638
    40   8 O       42   1 H                                       0.9722937
    30  48 Cd      43   8 O                                       2.1092110
    43   8 O       44   1 H                                       0.9670467
    43   8 O       45   1 H                                       0.9705538
    30  48 Cd      46   8 O                                       2.1443222
    46   8 O       47   1 H                                       0.9676378
    46   8 O       48   1 H                                       0.9691819
Note: The following floating-point exceptions are signalling: IEEE_UNDERFLOW_FLAG IEEE_DENORMAL
normal termination of xtb

 * 5 distinct bonds (by element types)

   Z      Z             #   av. dist./Å        max./Å        min./Å
   1 H    6 C          17     1.0916041     1.0930576     1.0875064
   6 C    6 C           7     1.5263607     1.5272336     1.5240650
   1 H    8 O          12     0.9683893     0.9722937     0.9664068
   6 C    8 O           2     1.2714390     1.3329140     1.2099640
   8 O   48 Cd          6     2.1575079     2.2325485     2.1092110


optimized geometry written to: xtbopt.xyz


           -------------------------------------------------
          | TOTAL ENERGY              -67.219776994156 Eh   |
          | GRADIENT NORM               0.000406560696 Eh/α |
          | HOMO-LUMO GAP               4.839315867071 eV   |
           -------------------------------------------------

------------------------------------------------------------------------
 * finished run on 2026/05/26 at 02:17:03.988     
------------------------------------------------------------------------
 total:
 * wall-time:     0 d,  0 h,  0 min, 51.584 sec
 *  cpu-time:     0 d,  0 h,  1 min, 25.767 sec
 * ratio c/w:     1.663 speedup
 SCF:
 * wall-time:     0 d,  0 h,  0 min,  0.621 sec
 *  cpu-time:     0 d,  0 h,  0 min,  0.811 sec
 * ratio c/w:     1.306 speedup
 ANC optimizer:
 * wall-time:     0 d,  0 h,  0 min, 50.915 sec
 *  cpu-time:     0 d,  0 h,  1 min, 24.888 sec
 * ratio c/w:     1.667 speedup

