      -----------------------------------------------------------      
     |                   =====================                   |     
     |                           x T B                           |     
     |                   =====================                   |     
     |                         S. Grimme                         |     
     |          Mulliken Center for Theoretical Chemistry        |     
     |                    University of Bonn                     |     
      -----------------------------------------------------------      

   * xtb version 6.7.1 (edcfbbe) compiled by 'conda@c0858423619e' on 2025-09-04

   xtb is free software: you can redistribute it and/or modify it under
   the terms of the GNU Lesser General Public License as published by
   the Free Software Foundation, either version 3 of the License, or
   (at your option) any later version.
   
   xtb is distributed in the hope that it will be useful,
   but WITHOUT ANY WARRANTY; without even the implied warranty of
   MERCHANTABILITY or FITNESS FOR A PARTICULAR PURPOSE.  See the
   GNU Lesser General Public License for more details.
   
   Cite this work as:
   * C. Bannwarth, E. Caldeweyher, S. Ehlert, A. Hansen, P. Pracht,
     J. Seibert, S. Spicher, S. Grimme, WIREs Comput. Mol. Sci., 2020, 11,
     e01493. DOI: 10.1002/wcms.1493
   
   for GFN2-xTB:
   * C. Bannwarth, S. Ehlert and S. Grimme., J. Chem. Theory Comput., 2019,
     15, 1652-1671. DOI: 10.1021/acs.jctc.8b01176
   for GFN1-xTB:
   * S. Grimme, C. Bannwarth, P. Shushkov, J. Chem. Theory Comput., 2017,
     13, 1989-2009. DOI: 10.1021/acs.jctc.7b00118
   for GFN0-xTB:
   * P. Pracht, E. Caldeweyher, S. Ehlert, S. Grimme, ChemRxiv, 2019, preprint.
     DOI: 10.26434/chemrxiv.8326202.v1
   for GFN-FF:
   * S. Spicher and S. Grimme, Angew. Chem. Int. Ed., 2020, 59, 15665-15673.
     DOI: 10.1002/anie.202004239
   
   for ALPB and GBSA implicit solvation:
   * S. Ehlert, M. Stahn, S. Spicher, S. Grimme, J. Chem. Theory Comput.,
     2021, 17, 4250-4261. DOI: 10.1021/acs.jctc.1c00471
   
   for ddCOSMO and CPCM-X implicit solvation:
   * M. Stahn, S. Ehlert, S. Grimme, J. Phys. Chem. A,
     2023, XX, XXXX-XXXX. DOI: 10.1021/acs.jpca.3c04382
   
   for DFT-D4:
   * E. Caldeweyher, C. Bannwarth and S. Grimme, J. Chem. Phys., 2017,
     147, 034112. DOI: 10.1063/1.4993215
   * E. Caldeweyher, S. Ehlert, A. Hansen, H. Neugebauer, S. Spicher,
     C. Bannwarth and S. Grimme, J. Chem. Phys., 2019, 150, 154122.
     DOI: 10.1063/1.5090222
   * E. Caldeweyher, J.-M. Mewes, S. Ehlert and S. Grimme, Phys. Chem. Chem. Phys.
     2020, 22, 8499-8512. DOI: 10.1039/D0CP00502A
   
   for sTDA-xTB:
   * S. Grimme and C. Bannwarth, J. Chem. Phys., 2016, 145, 054103.
     DOI: 10.1063/1.4959605
   
   in the mass-spec context:
   * V. Asgeirsson, C. Bauer and S. Grimme, Chem. Sci., 2017, 8, 4879.
     DOI: 10.1039/c7sc00601b
   * J. Koopman and S. Grimme, ACS Omega 2019, 4, 12, 15120-15133.
     DOI: 10.1021/acsomega.9b02011
   
   for metadynamics refer to:
   * S. Grimme, J. Chem. Theory Comput., 2019, 155, 2847-2862
     DOI: 10.1021/acs.jctc.9b00143
   
   for SPH calculations refer to:
   * S. Spicher and S. Grimme, J. Chem. Theory Comput., 2021, 17, 1701-1714
     DOI: 10.1021/acs.jctc.0c01306
   
   for ONIOM refer to:
   * C. Plett, A. Katbashev, S. Ehlert, S. Grimme, M. Bursch,
     Phys. Chem. Chem. Phys., 2023, 25, 17860-17868. DOI: 10.1039/D3CP02178E
   
   for DIPRO refer to:
   * J. Kohn, N. Gildemeister, S. Grimme, D. Fazzi, A. Hansen,
     J. Chem. Phys., 2023, just accepted.
   
   for PTB refer to:
   * S. Grimme, M. Mueller, A. Hansen, J. Chem. Phys., 2023, 158, 124111.
     DOI: 10.1063/5.0137838
   
   with help from (in alphabetical order)
   P. Atkinson, C. Bannwarth, F. Bohle, G. Brandenburg, E. Caldeweyher
   M. Checinski, S. Dohm, S. Ehlert, S. Ehrlich, I. Gerasimov, C. Hölzer
   A. Katbashev, J. Kohn, J. Koopman, C. Lavigne, S. Lehtola, F. März, M. Müller,
   F. Musil, H. Neugebauer, J. Pisarek, C. Plett, P. Pracht, F. Pultar,
   J. Seibert, P. Shushkov, S. Spicher, M. Stahn, M. Steiner, T. Strunk,
   J. Stückrath, T. Rose, and J. Unsleber
   
 * started run on 2026/05/26 at 02:14:33.690     
   ID    Z sym.   atoms
    1    6 C      1-9
    2    8 O      10, 11, 31, 34, 37, 40, 43, 46
    3    1 H      12-29, 32, 33, 35, 36, 38, 39, 41, 42, 44, 45, 47, 48
    4   48 Cd     30

           -------------------------------------------------
          |                Calculation Setup                |
           -------------------------------------------------

          program call               : /content/xtb_env/bin/xtb input.xyz --gfn 2 --opt tight --alpb water --chrg 2 --uhf 0
          hostname                   : 01035569fb61
          coordinate file            : input.xyz
          omp threads                :                     2


molecular fragmentation (1/2 indicates fragments):
111111111111111111111111111111111111111111222222
# atoms in fragment 1/2:    42     6
 fragment masses (1/2) :      342.71       36.03
CMA distance (Bohr)    :   6.870
constraining FC (au)   :  0.0500

           -------------------------------------------------
          |                 G F N 2 - x T B                 |
           -------------------------------------------------

        Reference                      10.1021/acs.jctc.8b01176
      * Hamiltonian:
        H0-scaling (s, p, d)           1.850000    2.230000    2.230000
        zeta-weighting                 0.500000
      * Dispersion:
        s8                             2.700000
        a1                             0.520000
        a2                             5.000000
        s9                             5.000000
      * Repulsion:
        kExp                           1.500000    1.000000
        rExp                           1.000000
      * Coulomb:
        alpha                          2.000000
        third order                    shell-resolved
        anisotropic                    true
        a3                             3.000000
        a5                             4.000000
        cn-shift                       1.200000
        cn-exp                         4.000000
        max-rad                        5.000000

      * Solvation model:               ALPB
        Solvent                        water
        Parameter file                 internal GFN2-xTB/ALPB
        Dielectric constant                8.0200E+01
        Reference state                gsolv [1 M gas/solution]
        Free energy shift                  1.0808E-03 Eh       6.7819E-01 kcal/mol
        Temperature                        2.9815E+02 K
        Density                            1.0000E+00 kg/L
        Solvent mass                       1.8000E+01 g/mol
        Interaction kernel             P16
        Born radius scaling (c1)           1.4744E+00
        Born radii integrator          GBOBC
        Born offset                        0.0000E+00 a0       0.0000E+00 AA
        H-bond correction              true
        Ion screening                  false
        Surface tension                    1.0000E-05 Eh       1.5569E+01 dyn/cm
        Grid points                               230 per atom

          ...................................................
          :                      SETUP                      :
          :.................................................:
          :  # basis functions                 102          :
          :  # atomic orbitals                 102          :
          :  # shells                           66          :
          :  # electrons                       114          :
          :  max. iterations                   250          :
          :  Hamiltonian                  GFN2-xTB          :
          :  restarted?                      false          :
          :  GBSA solvation                   true          :
          :  PC potential                    false          :
          :  electronic temp.          300.0000000     K    :
          :  accuracy                    1.0000000          :
          :  -> integral cutoff          0.2500000E+02      :
          :  -> integral neglect         0.1000000E-07      :
          :  -> SCF convergence          0.1000000E-05 Eh   :
          :  -> wf. convergence          0.1000000E-03 e    :
          :  Broyden damping             0.4000000          :
          :  net charge                          2          :
          :  unpaired electrons                  0          :
          ...................................................

 iter      E             dE          RMSdq      gap      omega  full diag
   1    -63.0867824 -0.630868E+02  0.797E+00    0.13       0.0  T
   2    -64.2988177 -0.121204E+01  0.679E+00    0.62       1.0  T
   3    -65.1997848 -0.900967E+00  0.378E+00    0.78       1.0  T
   4    -65.3319964 -0.132212E+00  0.295E+00    0.09       1.0  T
   5    -65.4084000 -0.764037E-01  0.179E+00    0.17       1.0  T
   6    -65.5794940 -0.171094E+00  0.795E-01    0.10       1.0  T
   7    -65.5762167  0.327732E-02  0.727E-01    0.04       1.0  T
   8    -65.5744332  0.178349E-02  0.714E-01    0.14       1.0  T
   9    -65.5830052 -0.857201E-02  0.332E-01    0.06       1.0  T
  10    -65.5855649 -0.255973E-02  0.123E-01    0.07       1.0  T
  11    -65.5856357 -0.707642E-04  0.794E-02    0.07       1.0  T
  12    -65.5858126 -0.176941E-03  0.352E-02    0.06       1.0  T
  13    -65.5858206 -0.794818E-05  0.319E-02    0.06       1.0  T
  14    -65.5858414 -0.208173E-04  0.152E-02    0.06       1.0  T
  15    -65.5858458 -0.442648E-05  0.693E-03    0.06       2.1  T
  16    -65.5858464 -0.612953E-06  0.361E-03    0.06       4.0  T
  17    -65.5858467 -0.205638E-06  0.111E-03    0.06      13.0  T
  18    -65.5858467 -0.267404E-07  0.717E-04    0.06      20.1  T
  19    -65.5858467 -0.635939E-08  0.418E-04    0.06      34.5  T

   *** convergence criteria satisfied after 19 iterations ***

         #    Occupation            Energy/Eh            Energy/eV
      -------------------------------------------------------------
         1        2.0000           -0.8398890             -22.8545
       ...           ...                  ...                  ...
        51        2.0000           -0.3556274              -9.6771
        52        2.0000           -0.3439533              -9.3594
        53        2.0000           -0.3154943              -8.5850
        54        2.0000           -0.3099056              -8.4330
        55        2.0000           -0.2849201              -7.7531
        56        2.0000           -0.2588509              -7.0437
        57        1.5215           -0.2447092              -6.6589 (HOMO)
        58        0.4785           -0.2425109              -6.5991 (LUMO)
        59        0.0000           -0.2310573              -6.2874
        60                         -0.2152616              -5.8576
        61                         -0.1958626              -5.3297
        62                         -0.1544430              -4.2026
       ...                                ...                  ...
       102                         31.6708230             861.8070
      -------------------------------------------------------------
                  HL-Gap            0.0021982 Eh            0.0598 eV
             Fermi-level           -0.2436101 Eh           -6.6290 eV

 SCC (total)                   0 d,  0 h,  0 min,  1.828 sec
 SCC setup                      ...        0 min,  0.008 sec (  0.426%)
 Dispersion                     ...        0 min,  0.012 sec (  0.659%)
 classical contributions        ...        0 min,  0.004 sec (  0.199%)
 integral evaluation            ...        0 min,  0.031 sec (  1.678%)
 iterations                     ...        0 min,  1.687 sec ( 92.293%)
 molecular gradient             ...        0 min,  0.082 sec (  4.480%)
 printout                       ...        0 min,  0.005 sec (  0.257%)

         :::::::::::::::::::::::::::::::::::::::::::::::::::::
         ::                     SUMMARY                     ::
         :::::::::::::::::::::::::::::::::::::::::::::::::::::
         :: total energy             -60.114123622030 Eh    ::
         :: total w/o Gsasa/hb       -60.046807513625 Eh    ::
         :: gradient norm             27.479873565117 Eh/a0 ::
         :: HOMO-LUMO gap              0.059817400904 eV    ::
         ::.................................................::
         :: SCC energy               -65.585993761466 Eh    ::
         :: -> isotropic ES            0.578737577322 Eh    ::
         :: -> anisotropic ES          0.016225375407 Eh    ::
         :: -> anisotropic XC          0.013215259664 Eh    ::
         :: -> dispersion             -0.029636753498 Eh    ::
         :: -> Gsolv                  -0.421430783078 Eh    ::
         ::    -> Gelec               -0.354114674673 Eh    ::
         ::    -> Gsasa               -0.001457159192 Eh    ::
         ::    -> Ghb                 -0.066939708911 Eh    ::
         ::    -> Gshift               0.001080759698 Eh    ::
         :: repulsion energy           5.471870139436 Eh    ::
         :: add. restraining           0.000000000000 Eh    ::
         :: total charge               2.000000000000 e     ::
         :::::::::::::::::::::::::::::::::::::::::::::::::::::

      ----------------------------------------------------------- 
     |                   =====================                   |
     |                        A N C O P T                        |
     |                   =====================                   |
     |               Approximate Normal Coordinate               |
     |                Rational Function Optimizer                |
      ----------------------------------------------------------- 
      ----------------------------------------------------------- 
     |                   =====================                   |
     |                        A N C O P T                        |
     |                   =====================                   |
     |               Approximate Normal Coordinate               |
     |                Rational Function Optimizer                |
      ----------------------------------------------------------- 

          ...................................................
          :                      SETUP                      :
          :.................................................:
          :   optimization level             tight          :
          :   max. optcycles                   240          :
          :   ANC micro-cycles                  20          :
          :   degrees of freedom               138          :
          :.................................................:
          :   RF solver                   davidson          :
          :   write xtbopt.log                true          :
          :   linear?                        false          :
          :   energy convergence         0.1000000E-05 Eh   :
          :   grad. convergence          0.8000000E-03 Eh/α :
          :   maxmium RF displ.          1.0000000          :
          :   Hlow (freq-cutoff)         0.1000000E-01      :
          :   Hmax (freq-cutoff)         5.0000000          :
          :   S6 in model hess.         20.0000000          :
          ...................................................

generating ANC from exact Hessian ...
Using Lindh-Hessian (1995)
 Shifting diagonal of input Hessian by    1.0127099786726440E-002
 Lowest  eigenvalues of input Hessian
    0.010000    0.010044    0.010088    0.000000    0.000000    0.000000
    0.000000    0.000000    0.000000    0.010171    0.010219    0.010239
    0.010244    0.010347    0.010358    0.010428    0.010587    0.010599
 Highest eigenvalues
    3.541253    4.893373    5.050084    5.729542    6.716560   35.886197


........................................................................
.............................. CYCLE    1 ..............................
........................................................................

 iter      E             dE          RMSdq      gap      omega  full diag
   1    -65.5858467 -0.655858E+02  0.213E-04    0.06       0.0  T
   2    -65.5858467  0.691908E-08  0.428E-04    0.06      33.7  T
   3    -65.5858467 -0.628978E-08  0.240E-04    0.06      60.1  T
     SCC iter.                  ...        0 min,  0.507 sec
     gradient                   ...        0 min,  0.086 sec
 * total energy  :   -60.1141236 Eh     change       -0.2130434E-08 Eh
   gradient norm :    27.4798610 Eh/α   predicted     0.0000000E+00 (-100.00%)
   displ. norm   :     0.9143145 α      lambda       -0.2487982E+02
   maximum displ.:     0.8988385 α      in ANC's #137, #132, #138, ...

........................................................................
.............................. CYCLE    2 ..............................
........................................................................

 iter      E             dE          RMSdq      gap      omega  full diag
   1    -65.7899348 -0.657899E+02  0.180E+00    0.14       0.0  T
   2    -65.7832944  0.664039E-02  0.123E+00    0.11       1.0  T
   3    -65.8075401 -0.242457E-01  0.969E-01    0.26       1.0  T
   4    -65.8317135 -0.241734E-01  0.682E-01    0.21       1.0  T
   5    -65.8403761 -0.866259E-02  0.512E-01    0.16       1.0  T
   6    -65.8436769 -0.330077E-02  0.228E-01    0.15       1.0  T
   7    -65.8433082  0.368689E-03  0.177E-01    0.14       1.0  T
   8    -65.8444146 -0.110646E-02  0.372E-02    0.15       1.0  T
   9    -65.8444149 -0.246524E-06  0.317E-02    0.15       1.0  T
  10    -65.8444412 -0.263081E-04  0.101E-02    0.15       1.4  T
  11    -65.8444412  0.293596E-08  0.437E-03    0.15       3.3  T
  12    -65.8444420 -0.774703E-06  0.124E-03    0.15      11.6  T
  13    -65.8444420 -0.976883E-08  0.974E-04    0.15      14.8  T
  14    -65.8444420 -0.789427E-08  0.462E-04    0.15      31.3  T
     SCC iter.                  ...        0 min,  0.473 sec
     gradient                   ...        0 min,  0.093 sec
 * total energy  :   -64.5497758 Eh     change       -0.4435652E+01 Eh
   gradient norm :     2.6281602 Eh/α   predicted    -0.2306175E+02 ( 419.92%)
   displ. norm   :     0.6444834 α      lambda       -0.1474433E+01
   maximum displ.:     0.2438629 α      in ANC's #132, #134, #131, ...

........................................................................
.............................. CYCLE    3 ..............................
........................................................................

 iter      E             dE          RMSdq      gap      omega  full diag
   1    -66.0707400 -0.660707E+02  0.114E+00    0.51       0.0  T
   2    -66.0814072 -0.106672E-01  0.843E-01    0.33       1.0  T
   3    -66.0866286 -0.522136E-02  0.704E-01    0.45       1.0  T
   4    -66.0942191 -0.759056E-02  0.308E-01    0.46       1.0  T
   5    -66.0951983 -0.979148E-03  0.141E-01    0.44       1.0  T
   6    -66.0956892 -0.490960E-03  0.516E-02    0.43       1.0  T
   7    -66.0957238 -0.345572E-04  0.255E-02    0.44       1.0  T
   8    -66.0957311 -0.733479E-05  0.108E-02    0.44       1.3  T
   9    -66.0957321 -0.969026E-06  0.272E-03    0.44       5.3  T
  10    -66.0957322 -0.112867E-06  0.133E-03    0.44      10.8  T
  11    -66.0957322 -0.236157E-07  0.690E-04    0.44      20.9  T
  12    -66.0957322 -0.370635E-08  0.239E-04    0.44      60.4  T
     SCC iter.                  ...        0 min,  0.659 sec
     gradient                   ...        0 min,  0.093 sec
 * total energy  :   -65.3139143 Eh     change       -0.7641386E+00 Eh
   gradient norm :     0.8063283 Eh/α   predicted    -0.1043427E+01 (  36.55%)
   displ. norm   :     0.7314523 α      lambda       -0.4924056E+00
   maximum displ.:     0.3512186 α      in ANC's #51, #77, #54, ...

........................................................................
.............................. CYCLE    4 ..............................
........................................................................

 iter      E             dE          RMSdq      gap      omega  full diag
   1    -66.4074364 -0.664074E+02  0.927E-01    0.30       0.0  T
   2    -66.4157610 -0.832459E-02  0.493E-01    0.55       1.0  T
   3    -66.4163851 -0.624174E-03  0.287E-01    0.60       1.0  T
   4    -66.4169037 -0.518592E-03  0.108E-01    0.64       1.0  T
   5    -66.4171153 -0.211594E-03  0.421E-02    0.63       1.0  T
   6    -66.4171497 -0.343806E-04  0.183E-02    0.62       1.0  T
   7    -66.4171542 -0.454224E-05  0.109E-02    0.62       1.3  T
   8    -66.4171560 -0.174044E-05  0.510E-03    0.62       2.8  T
   9    -66.4171562 -0.204878E-06  0.229E-03    0.62       6.3  T
  10    -66.4171562 -0.370836E-07  0.120E-03    0.62      12.1  T
  11    -66.4171562 -0.695357E-08  0.409E-04    0.62      35.3  T
  12    -66.4171562 -0.131453E-08  0.167E-04    0.62      86.4  T
     SCC iter.                  ...        0 min,  0.313 sec
     gradient                   ...        0 min,  0.084 sec
 * total energy  :   -65.7224291 Eh     change       -0.4085148E+00 Eh
   gradient norm :     0.5422354 Eh/α   predicted    -0.3779270E+00 (  -7.49%)
   displ. norm   :     0.7798777 α      lambda       -0.3723417E+00
   maximum displ.:     0.3943450 α      in ANC's #51, #47, #77, ...

........................................................................
.............................. CYCLE    5 ..............................
........................................................................

 iter      E             dE          RMSdq      gap      omega  full diag
   1    -66.6840384 -0.666840E+02  0.781E-01    0.56       0.0  T
   2    -66.6886465 -0.460809E-02  0.416E-01    0.63       1.0  T
   3    -66.6888112 -0.164691E-03  0.207E-01    0.71       1.0  T
   4    -66.6890866 -0.275358E-03  0.699E-02    0.70       1.0  T
   5    -66.6891539 -0.672944E-04  0.324E-02    0.70       1.0  T
   6    -66.6891675 -0.136478E-04  0.161E-02    0.70       1.0  T
   7    -66.6891685 -0.102149E-05  0.874E-03    0.70       1.7  T
   8    -66.6891697 -0.116475E-05  0.284E-03    0.70       5.1  T
   9    -66.6891698 -0.860142E-07  0.129E-03    0.70      11.2  T
  10    -66.6891698 -0.958244E-08  0.648E-04    0.70      22.3  T
  11    -66.6891698 -0.390574E-08  0.230E-04    0.70      62.8  T
     SCC iter.                  ...        0 min,  0.090 sec
     gradient                   ...        0 min,  0.051 sec
 * total energy  :   -66.0397253 Eh     change       -0.3172962E+00 Eh
   gradient norm :     0.3783966 Eh/α   predicted    -0.2994016E+00 (  -5.64%)
   displ. norm   :     0.8278095 α      lambda       -0.2795560E+00
   maximum displ.:     0.4647749 α      in ANC's #51, #47, #89, ...

........................................................................
.............................. CYCLE    6 ..............................
........................................................................

 iter      E             dE          RMSdq      gap      omega  full diag
   1    -66.8920178 -0.668920E+02  0.609E-01    0.91       0.0  T
   2    -66.8942668 -0.224902E-02  0.323E-01    1.01       1.0  T
   3    -66.8942820 -0.152697E-04  0.147E-01    1.04       1.0  T
   4    -66.8944376 -0.155584E-03  0.572E-02    1.04       1.0  T
   5    -66.8944748 -0.371405E-04  0.265E-02    1.03       1.0  T
   6    -66.8944800 -0.524772E-05  0.147E-02    1.03       1.0  T
   7    -66.8944807 -0.719933E-06  0.544E-03    1.04       2.7  T
   8    -66.8944813 -0.555848E-06  0.163E-03    1.03       8.8  T
   9    -66.8944813 -0.234716E-07  0.737E-04    1.03      19.6  T
  10    -66.8944813 -0.225300E-08  0.341E-04    1.03      42.4  T
     SCC iter.                  ...        0 min,  0.148 sec
     gradient                   ...        0 min,  0.055 sec
 * total energy  :   -66.2835126 Eh     change       -0.2437874E+00 Eh
   gradient norm :     0.2859192 Eh/α   predicted    -0.2355635E+00 (  -3.37%)
   displ. norm   :     0.8526247 α      lambda       -0.2185766E+00
   maximum displ.:     0.4827481 α      in ANC's #51, #47, #89, ...

........................................................................
.............................. CYCLE    7 ..............................
........................................................................

 iter      E             dE          RMSdq      gap      omega  full diag
   1    -67.0574055 -0.670574E+02  0.508E-01    1.39       0.0  T
   2    -67.0584485 -0.104305E-02  0.276E-01    1.46       1.0  T
   3    -67.0584385  0.995211E-05  0.104E-01    1.49       1.0  T
   4    -67.0585297 -0.911776E-04  0.424E-02    1.47       1.0  T
   5    -67.0585512 -0.214766E-04  0.201E-02    1.47       1.0  T
   6    -67.0585516 -0.390976E-06  0.981E-03    1.48       1.5  T
   7    -67.0585525 -0.888464E-06  0.297E-03    1.48       4.9  T
   8    -67.0585526 -0.114002E-06  0.141E-03    1.48      10.2  T
   9    -67.0585526 -0.150136E-07  0.666E-04    1.48      21.7  T
  10    -67.0585526 -0.225488E-08  0.267E-04    1.48      54.0  T
     SCC iter.                  ...        0 min,  0.086 sec
     gradient                   ...        0 min,  0.049 sec
 * total energy  :   -66.4771284 Eh     change       -0.1936158E+00 Eh
   gradient norm :     0.2339135 Eh/α   predicted    -0.1887375E+00 (  -2.52%)
   displ. norm   :     0.8547227 α      lambda       -0.1757368E+00
   maximum displ.:     0.4392991 α      in ANC's #51, #47, #25, ...

........................................................................
.............................. CYCLE    8 ..............................
........................................................................

 iter      E             dE          RMSdq      gap      omega  full diag
   1    -67.2000483 -0.672000E+02  0.480E-01    1.89       0.0  T
   2    -67.2005509 -0.502611E-03  0.272E-01    1.94       1.0  T
   3    -67.2005260  0.248670E-04  0.785E-02    1.97       1.0  T
   4    -67.2006150 -0.889451E-04  0.295E-02    1.95       1.0  T
   5    -67.2006231 -0.818934E-05  0.152E-02    1.95       1.0  T
   6    -67.2006234 -0.238382E-06  0.606E-03    1.95       2.4  T
   7    -67.2006238 -0.388651E-06  0.221E-03    1.95       6.5  T
   8    -67.2006238 -0.363581E-07  0.117E-03    1.95      12.3  T
   9    -67.2006238 -0.894489E-08  0.544E-04    1.95      26.5  T
  10    -67.2006238 -0.126715E-08  0.181E-04    1.95      79.9  T
     SCC iter.                  ...        0 min,  0.230 sec
     gradient                   ...        0 min,  0.082 sec
 * total energy  :   -66.6328066 Eh     change       -0.1556781E+00 Eh
   gradient norm :     0.1986230 Eh/α   predicted    -0.1520607E+00 (  -2.32%)
   displ. norm   :     0.8450521 α      lambda       -0.1399987E+00
   maximum displ.:     0.3690706 α      in ANC's #51, #47, #25, ...

........................................................................
.............................. CYCLE    9 ..............................
........................................................................

 iter      E             dE          RMSdq      gap      omega  full diag
   1    -67.3196728 -0.673197E+02  0.486E-01    2.33       0.0  T
   2    -67.3199713 -0.298451E-03  0.279E-01    2.39       1.0  T
   3    -67.3199560  0.153007E-04  0.577E-02    2.41       1.0  T
   4    -67.3200223 -0.663216E-04  0.197E-02    2.40       1.0  T
   5    -67.3200255 -0.318947E-05  0.101E-02    2.40       1.4  T
   6    -67.3200258 -0.304639E-06  0.481E-03    2.40       3.0  T
   7    -67.3200260 -0.158796E-06  0.172E-03    2.40       8.4  T
   8    -67.3200260 -0.152347E-07  0.930E-04    2.40      15.5  T
   9    -67.3200260 -0.501397E-08  0.458E-04    2.40      31.5  T
     SCC iter.                  ...        0 min,  0.183 sec
     gradient                   ...        0 min,  0.054 sec
 * total energy  :   -66.7552100 Eh     change       -0.1224034E+00 Eh
   gradient norm :     0.1715717 Eh/α   predicted    -0.1199867E+00 (  -1.97%)
   displ. norm   :     0.8247171 α      lambda       -0.1070023E+00
   maximum displ.:     0.3620803 α      in ANC's #25, #47, #51, ...

........................................................................
.............................. CYCLE   10 ..............................
........................................................................

 iter      E             dE          RMSdq      gap      omega  full diag
   1    -67.4109199 -0.674109E+02  0.474E-01    2.70       0.0  T
   2    -67.4112144 -0.294458E-03  0.270E-01    2.77       1.0  T
   3    -67.4112270 -0.126837E-04  0.429E-02    2.79       1.0  T
   4    -67.4112507 -0.236297E-04  0.155E-02    2.79       1.0  T
   5    -67.4112540 -0.336059E-05  0.715E-03    2.79       2.0  T
   6    -67.4112542 -0.146563E-06  0.323E-03    2.79       4.5  T
   7    -67.4112543 -0.965401E-07  0.130E-03    2.79      11.1  T
   8    -67.4112543 -0.103181E-07  0.686E-04    2.79      21.1  T
   9    -67.4112543 -0.140143E-08  0.363E-04    2.79      39.7  T
     SCC iter.                  ...        0 min,  0.074 sec
     gradient                   ...        0 min,  0.049 sec
 * total energy  :   -66.8470022 Eh     change       -0.9179220E-01 Eh
   gradient norm :     0.1507484 Eh/α   predicted    -0.8989037E-01 (  -2.07%)
   displ. norm   :     0.7976215 α      lambda       -0.7900169E-01
   maximum displ.:     0.4232106 α      in ANC's #25, #47, #53, ...

........................................................................
.............................. CYCLE   11 ..............................
........................................................................

 iter      E             dE          RMSdq      gap      omega  full diag
   1    -67.4753587 -0.674754E+02  0.433E-01    3.01       0.0  T
   2    -67.4758085 -0.449799E-03  0.241E-01    3.09       1.0  T
   3    -67.4758321 -0.236880E-04  0.490E-02    3.11       1.0  T
   4    -67.4758400 -0.782535E-05  0.139E-02    3.12       1.0  T
   5    -67.4758426 -0.262082E-05  0.724E-03    3.11       2.0  T
   6    -67.4758427 -0.136282E-06  0.238E-03    3.11       6.1  T
   7    -67.4758428 -0.557133E-07  0.110E-03    3.11      13.1  T
   8    -67.4758428 -0.976171E-08  0.552E-04    3.11      26.2  T
   9    -67.4758428 -0.814779E-09  0.233E-04    3.11      61.9  T
     SCC iter.                  ...        0 min,  0.173 sec
     gradient                   ...        0 min,  0.091 sec
 * total energy  :   -66.9140848 Eh     change       -0.6708256E-01 Eh
   gradient norm :     0.1361285 Eh/α   predicted    -0.6463141E-01 (  -3.65%)
   displ. norm   :     0.7780539 α      lambda       -0.6007861E-01
   maximum displ.:     0.4769947 α      in ANC's #25, #47, #29, ...

........................................................................
.............................. CYCLE   12 ..............................
........................................................................

 iter      E             dE          RMSdq      gap      omega  full diag
   1    -67.5265463 -0.675265E+02  0.372E-01    3.32       0.0  T
   2    -67.5270615 -0.515203E-03  0.203E-01    3.40       1.0  T
   3    -67.5270880 -0.265320E-04  0.540E-02    3.44       1.0  T
   4    -67.5270930 -0.504961E-05  0.144E-02    3.44       1.0  T
   5    -67.5270950 -0.199571E-05  0.793E-03    3.44       1.8  T
   6    -67.5270953 -0.232523E-06  0.232E-03    3.43       6.2  T
   7    -67.5270953 -0.371383E-07  0.109E-03    3.43      13.2  T
   8    -67.5270953 -0.114185E-07  0.514E-04    3.43      28.1  T
   9    -67.5270953 -0.509090E-09  0.183E-04    3.43      79.0  T
     SCC iter.                  ...        0 min,  0.091 sec
     gradient                   ...        0 min,  0.100 sec
 * total energy  :   -66.9658343 Eh     change       -0.5174956E-01 Eh
   gradient norm :     0.1275223 Eh/α   predicted    -0.4822418E-01 (  -6.81%)
   displ. norm   :     0.7737217 α      lambda       -0.5209828E-01
   maximum displ.:     0.5110253 α      in ANC's #25, #47, #29, ...

........................................................................
.............................. CYCLE   13 ..............................
........................................................................

 iter      E             dE          RMSdq      gap      omega  full diag
   1    -67.5763486 -0.675763E+02  0.314E-01    3.68       0.0  T
   2    -67.5768477 -0.499129E-03  0.171E-01    3.76       1.0  T
   3    -67.5768821 -0.343942E-04  0.565E-02    3.81       1.0  T
   4    -67.5768876 -0.555084E-05  0.195E-02    3.80       1.0  T
   5    -67.5768919 -0.422921E-05  0.104E-02    3.80       1.4  T
   6    -67.5768922 -0.382662E-06  0.286E-03    3.80       5.0  T
   7    -67.5768923 -0.427536E-07  0.119E-03    3.80      12.2  T
   8    -67.5768923 -0.133767E-07  0.503E-04    3.80      28.7  T
   9    -67.5768923 -0.456012E-09  0.165E-04    3.80      87.5  T
     SCC iter.                  ...        0 min,  0.184 sec
     gradient                   ...        0 min,  0.048 sec
 * total energy  :   -67.0121858 Eh     change       -0.4635147E-01 Eh
   gradient norm :     0.1218790 Eh/α   predicted    -0.4164331E-01 ( -10.16%)
   displ. norm   :     0.7726510 α      lambda       -0.5335222E-01
   maximum displ.:     0.4955125 α      in ANC's #25, #29, #47, ...

........................................................................
.............................. CYCLE   14 ..............................
........................................................................

 iter      E             dE          RMSdq      gap      omega  full diag
   1    -67.6380168 -0.676380E+02  0.288E-01    3.98       0.0  T
   2    -67.6384672 -0.450374E-03  0.165E-01    4.06       1.0  T
   3    -67.6385271 -0.599658E-04  0.646E-02    4.13       1.0  T
   4    -67.6385385 -0.114027E-04  0.283E-02    4.12       1.0  T
   5    -67.6385451 -0.658531E-05  0.141E-02    4.12       1.0  T
   6    -67.6385458 -0.660269E-06  0.367E-03    4.11       3.9  T
   7    -67.6385459 -0.649229E-07  0.139E-03    4.11      10.3  T
   8    -67.6385459 -0.121473E-07  0.555E-04    4.11      26.0  T
   9    -67.6385459 -0.566004E-09  0.228E-04    4.11      63.4  T
     SCC iter.                  ...        0 min,  0.161 sec
     gradient                   ...        0 min,  0.050 sec
 * total energy  :   -67.0597814 Eh     change       -0.4759561E-01 Eh
   gradient norm :     0.1096158 Eh/α   predicted    -0.4260148E-01 ( -10.49%)
   displ. norm   :     0.7913869 α      lambda       -0.5468545E-01
   maximum displ.:     0.4948615 α      in ANC's #25, #129, #29, ...

........................................................................
.............................. CYCLE   15 ..............................
........................................................................

 iter      E             dE          RMSdq      gap      omega  full diag
   1    -67.7028266 -0.677028E+02  0.308E-01    4.38       0.0  T
   2    -67.7030122 -0.185596E-03  0.191E-01    4.44       1.0  T
   3    -67.7030815 -0.693462E-04  0.541E-02    4.51       1.0  T
   4    -67.7030912 -0.965058E-05  0.297E-02    4.49       1.0  T
   5    -67.7030943 -0.318518E-05  0.111E-02    4.48       1.3  T
   6    -67.7030949 -0.537079E-06  0.314E-03    4.48       4.6  T
   7    -67.7030949 -0.484752E-07  0.119E-03    4.48      12.2  T
   8    -67.7030949 -0.656047E-08  0.551E-04    4.48      26.2  T
   9    -67.7030949 -0.376858E-09  0.203E-04    4.48      71.2  T
     SCC iter.                  ...        0 min,  0.187 sec
     gradient                   ...        0 min,  0.056 sec
 * total energy  :   -67.0991675 Eh     change       -0.3938605E-01 Eh
   gradient norm :     0.0838625 Eh/α   predicted    -0.4446726E-01 (  12.90%)
   displ. norm   :     0.7034733 α      lambda       -0.2948210E-01
   maximum displ.:     0.4708796 α      in ANC's #25, #51, #20, ...

........................................................................
.............................. CYCLE   16 ..............................
........................................................................

 iter      E             dE          RMSdq      gap      omega  full diag
   1    -67.7492444 -0.677492E+02  0.254E-01    4.22       0.0  T
   2    -67.7494379 -0.193477E-03  0.151E-01    4.29       1.0  T
   3    -67.7494329  0.501984E-05  0.517E-02    4.30       1.0  T
   4    -67.7494626 -0.297038E-04  0.159E-02    4.33       1.0  T
   5    -67.7494631 -0.558180E-06  0.943E-03    4.32       1.5  T
   6    -67.7494633 -0.132141E-06  0.227E-03    4.32       6.4  T
   7    -67.7494633 -0.292094E-07  0.778E-04    4.32      18.5  T
   8    -67.7494633 -0.278195E-08  0.335E-04    4.32      43.1  T
     SCC iter.                  ...        0 min,  0.150 sec
     gradient                   ...        0 min,  0.097 sec
 * total energy  :   -67.1187943 Eh     change       -0.1962680E-01 Eh
   gradient norm :     0.1017260 Eh/α   predicted    -0.2203606E-01 (  12.28%)
   displ. norm   :     0.7455703 α      lambda       -0.3435738E-01
   maximum displ.:     0.5434306 α      in ANC's #25, #51, #29, ...

........................................................................
.............................. CYCLE   17 ..............................
........................................................................

 iter      E             dE          RMSdq      gap      omega  full diag
   1    -67.7551878 -0.677552E+02  0.279E-01    4.01       0.0  T
   2    -67.7554557 -0.267961E-03  0.168E-01    4.09       1.0  T
   3    -67.7554462  0.951670E-05  0.569E-02    4.07       1.0  T
   4    -67.7554859 -0.396932E-04  0.123E-02    4.11       1.2  T
   5    -67.7554877 -0.176074E-05  0.621E-03    4.10       2.3  T
   6    -67.7554878 -0.109785E-06  0.272E-03    4.10       5.3  T
   7    -67.7554878 -0.225288E-07  0.661E-04    4.10      21.8  T
   8    -67.7554878 -0.171491E-08  0.318E-04    4.10      45.4  T
     SCC iter.                  ...        0 min,  0.116 sec
     gradient                   ...        0 min,  0.049 sec
 * total energy  :   -67.1398043 Eh     change       -0.2101002E-01 Eh
   gradient norm :     0.0804200 Eh/α   predicted    -0.2672792E-01 (  27.22%)
   displ. norm   :     0.7239939 α      lambda       -0.1994783E-01
   maximum displ.:     0.4483726 α      in ANC's #25, #29, #20, ...

........................................................................
.............................. CYCLE   18 ..............................
........................................................................

 iter      E             dE          RMSdq      gap      omega  full diag
   1    -67.7835656 -0.677836E+02  0.226E-01    4.33       0.0  T
   2    -67.7836461 -0.804153E-04  0.132E-01    4.32       1.0  T
   3    -67.7836495 -0.342978E-05  0.220E-02    4.32       1.0  T
   4    -67.7836525 -0.297803E-05  0.829E-03    4.32       1.7  T
   5    -67.7836529 -0.388111E-06  0.492E-03    4.32       2.9  T
   6    -67.7836529 -0.323817E-07  0.151E-03    4.32       9.6  T
   7    -67.7836529 -0.238679E-07  0.385E-04    4.32      37.5  T
   8    -67.7836529 -0.106816E-08  0.195E-04    4.32      74.1  T
     SCC iter.                  ...        0 min,  0.150 sec
     gradient                   ...        0 min,  0.055 sec
 * total energy  :   -67.1551718 Eh     change       -0.1536752E-01 Eh
   gradient norm :     0.0592394 Eh/α   predicted    -0.1520191E-01 (  -1.08%)
   displ. norm   :     0.7033967 α      lambda       -0.1531301E-01
   maximum displ.:     0.4689671 α      in ANC's #25, #40, #51, ...

........................................................................
.............................. CYCLE   19 ..............................
........................................................................

 iter      E             dE          RMSdq      gap      omega  full diag
   1    -67.8031793 -0.678032E+02  0.174E-01    4.24       0.0  T
   2    -67.8032252 -0.459323E-04  0.105E-01    4.28       1.0  T
   3    -67.8032285 -0.326934E-05  0.150E-02    4.31       1.0  T
   4    -67.8032307 -0.223659E-05  0.781E-03    4.31       1.8  T
   5    -67.8032309 -0.134799E-06  0.423E-03    4.31       3.4  T
   6    -67.8032309 -0.552742E-07  0.131E-03    4.31      11.0  T
   7    -67.8032309 -0.136951E-07  0.351E-04    4.31      41.1  T
   8    -67.8032309 -0.649734E-09  0.203E-04    4.31      71.2  T
     SCC iter.                  ...        0 min,  0.149 sec
     gradient                   ...        0 min,  0.088 sec
 * total energy  :   -67.1662834 Eh     change       -0.1111156E-01 Eh
   gradient norm :     0.0557859 Eh/α   predicted    -0.1144470E-01 (   3.00%)
   displ. norm   :     0.6673161 α      lambda       -0.1108339E-01
   maximum displ.:     0.5011026 α      in ANC's #25, #40, #29, ...

........................................................................
.............................. CYCLE   20 ..............................
........................................................................

 iter      E             dE          RMSdq      gap      omega  full diag
   1    -67.8136400 -0.678136E+02  0.202E-01    4.40       0.0  T
   2    -67.8136776 -0.375534E-04  0.118E-01    4.39       1.0  T
   3    -67.8136776 -0.535307E-07  0.140E-02    4.41       1.0  T
   4    -67.8136813 -0.369379E-05  0.671E-03    4.40       2.2  T
   5    -67.8136815 -0.178691E-06  0.388E-03    4.40       3.7  T
   6    -67.8136815 -0.160271E-07  0.140E-03    4.40      10.3  T
   7    -67.8136815 -0.638289E-08  0.265E-04    4.40      54.5  T
   8    -67.8136815 -0.356096E-09  0.121E-04    4.40     118.9  T
     SCC iter.                  ...        0 min,  0.141 sec
     gradient                   ...        0 min,  0.057 sec
 * total energy  :   -67.1735899 Eh     change       -0.7306498E-02 Eh
   gradient norm :     0.0463103 Eh/α   predicted    -0.8009467E-02 (   9.62%)
   displ. norm   :     0.5847048 α      lambda       -0.7144700E-02
   maximum displ.:     0.4093164 α      in ANC's #25, #7, #40, ...
 * RMSD in coord.:     1.5585745 α      energy gain  -0.7059466E+01 Eh

generating ANC from exact Hessian ...
Using Lindh-Hessian (1995)
 Shifting diagonal of input Hessian by    1.0334811002912092E-002
 Lowest  eigenvalues of input Hessian
    0.010000    0.010033    0.010180    0.010227    0.000000    0.000000
    0.000000    0.000000    0.000000    0.000000    0.010552    0.010668
    0.010718    0.010798    0.010861    0.010999    0.011077    0.011190
 Highest eigenvalues
    1.439001    1.440063    1.459255    1.473692    1.696266    2.305128


........................................................................
.............................. CYCLE   21 ..............................
........................................................................

 iter      E             dE          RMSdq      gap      omega  full diag
   1    -67.8242850 -0.678243E+02  0.142E-01    4.44       0.0  T
   2    -67.8243227 -0.377297E-04  0.836E-02    4.46       1.0  T
   3    -67.8243238 -0.106091E-05  0.151E-02    4.48       1.0  T
   4    -67.8243259 -0.213233E-05  0.576E-03    4.48       2.5  T
   5    -67.8243261 -0.200033E-06  0.314E-03    4.48       4.6  T
   6    -67.8243261 -0.185831E-07  0.111E-03    4.47      13.0  T
   7    -67.8243261 -0.350343E-08  0.235E-04    4.47      61.4  T
   8    -67.8243261 -0.287088E-09  0.105E-04    4.48     137.8  T
     SCC iter.                  ...        0 min,  0.150 sec
     gradient                   ...        0 min,  0.079 sec
 * total energy  :   -67.1779740 Eh     change       -0.4384166E-02 Eh
   gradient norm :     0.0454861 Eh/α   predicted     0.0000000E+00 (-100.00%)
   displ. norm   :     0.3494222 α      lambda       -0.6318367E-02
   maximum displ.:     0.1889479 α      in ANC's #35, #55, #43, ...

........................................................................
.............................. CYCLE   22 ..............................
........................................................................

 iter      E             dE          RMSdq      gap      omega  full diag
   1    -67.8313150 -0.678313E+02  0.100E-01    4.54       0.0  T
   2    -67.8313298 -0.147456E-04  0.594E-02    4.54       1.0  T
   3    -67.8313306 -0.830687E-06  0.130E-02    4.54       1.1  T
   4    -67.8313321 -0.151112E-05  0.667E-03    4.53       2.2  T
   5    -67.8313322 -0.124567E-06  0.336E-03    4.54       4.3  T
   6    -67.8313322 -0.162080E-07  0.578E-04    4.54      25.0  T
   7    -67.8313322 -0.257896E-08  0.226E-04    4.54      64.0  T
     SCC iter.                  ...        0 min,  0.059 sec
     gradient                   ...        0 min,  0.046 sec
 * total energy  :   -67.1827925 Eh     change       -0.4818449E-02 Eh
   gradient norm :     0.0230981 Eh/α   predicted    -0.3545982E-02 ( -26.41%)
   displ. norm   :     0.4837635 α      lambda       -0.4617142E-02
   maximum displ.:     0.2449499 α      in ANC's #35, #4, #33, ...

........................................................................
.............................. CYCLE   23 ..............................
........................................................................

 iter      E             dE          RMSdq      gap      omega  full diag
   1    -67.8332281 -0.678332E+02  0.115E-01    4.56       0.0  T
   2    -67.8332603 -0.321404E-04  0.677E-02    4.56       1.0  T
   3    -67.8332630 -0.271799E-05  0.166E-02    4.57       1.0  T
   4    -67.8332642 -0.119931E-05  0.854E-03    4.56       1.7  T
   5    -67.8332644 -0.273959E-06  0.474E-03    4.56       3.0  T
   6    -67.8332645 -0.274996E-07  0.695E-04    4.56      20.8  T
   7    -67.8332645 -0.442576E-08  0.265E-04    4.56      54.5  T
     SCC iter.                  ...        0 min,  0.134 sec
     gradient                   ...        0 min,  0.060 sec
 * total energy  :   -67.1859438 Eh     change       -0.3151302E-02 Eh
   gradient norm :     0.0216520 Eh/α   predicted    -0.2848840E-02 (  -9.60%)
   displ. norm   :     0.4099618 α      lambda       -0.2039476E-02
   maximum displ.:     0.1873619 α      in ANC's #8, #4, #35, ...

........................................................................
.............................. CYCLE   24 ..............................
........................................................................

 iter      E             dE          RMSdq      gap      omega  full diag
   1    -67.8367074 -0.678367E+02  0.767E-02    4.59       0.0  T
   2    -67.8367215 -0.141248E-04  0.444E-02    4.59       1.0  T
   3    -67.8367226 -0.115650E-05  0.995E-03    4.60       1.5  T
   4    -67.8367232 -0.602869E-06  0.562E-03    4.60       2.6  T
   5    -67.8367234 -0.119443E-06  0.330E-03    4.60       4.4  T
   6    -67.8367234 -0.887250E-08  0.439E-04    4.60      32.8  T
   7    -67.8367234 -0.214575E-08  0.133E-04    4.60     108.6  T
     SCC iter.                  ...        0 min,  0.058 sec
     gradient                   ...        0 min,  0.058 sec
 * total energy  :   -67.1875437 Eh     change       -0.1599917E-02 Eh
   gradient norm :     0.0210783 Eh/α   predicted    -0.1191161E-02 ( -25.55%)
   displ. norm   :     0.5277228 α      lambda       -0.2088292E-02
   maximum displ.:     0.3112921 α      in ANC's #8, #4, #23, ...

........................................................................
.............................. CYCLE   25 ..............................
........................................................................

 iter      E             dE          RMSdq      gap      omega  full diag
   1    -67.8428800 -0.678429E+02  0.846E-02    4.64       0.0  T
   2    -67.8428912 -0.111401E-04  0.488E-02    4.64       1.0  T
   3    -67.8428923 -0.116446E-05  0.907E-03    4.65       1.6  T
   4    -67.8428929 -0.554507E-06  0.604E-03    4.64       2.4  T
   5    -67.8428929 -0.797964E-07  0.343E-03    4.64       4.2  T
   6    -67.8428930 -0.111295E-07  0.437E-04    4.64      33.0  T
   7    -67.8428930 -0.308776E-08  0.125E-04    4.64     115.6  T
     SCC iter.                  ...        0 min,  0.101 sec
     gradient                   ...        0 min,  0.045 sec
 * total energy  :   -67.1891941 Eh     change       -0.1650407E-02 Eh
   gradient norm :     0.0131105 Eh/α   predicted    -0.1334932E-02 ( -19.12%)
   displ. norm   :     0.5912040 α      lambda       -0.1672879E-02
   maximum displ.:     0.3820347 α      in ANC's #8, #4, #23, ...

........................................................................
.............................. CYCLE   26 ..............................
........................................................................

 iter      E             dE          RMSdq      gap      omega  full diag
   1    -67.8447336 -0.678447E+02  0.832E-02    4.65       0.0  T
   2    -67.8447418 -0.820849E-05  0.480E-02    4.65       1.0  T
   3    -67.8447432 -0.146940E-05  0.941E-03    4.65       1.5  T
   4    -67.8447435 -0.225129E-06  0.625E-03    4.65       2.3  T
   5    -67.8447435 -0.756452E-08  0.262E-03    4.65       5.5  T
   6    -67.8447435 -0.247431E-07  0.322E-04    4.65      44.9  T
   7    -67.8447435 -0.228800E-08  0.155E-04    4.65      93.3  T
     SCC iter.                  ...        0 min,  0.135 sec
     gradient                   ...        0 min,  0.092 sec
 * total energy  :   -67.1905716 Eh     change       -0.1377460E-02 Eh
   gradient norm :     0.0134050 Eh/α   predicted    -0.1128797E-02 ( -18.05%)
   displ. norm   :     0.6057282 α      lambda       -0.1561951E-02
   maximum displ.:     0.4279651 α      in ANC's #8, #4, #23, ...

........................................................................
.............................. CYCLE   27 ..............................
........................................................................

 iter      E             dE          RMSdq      gap      omega  full diag
   1    -67.8486055 -0.678486E+02  0.752E-02    4.66       0.0  T
   2    -67.8486144 -0.895063E-05  0.432E-02    4.66       1.0  T
   3    -67.8486152 -0.811749E-06  0.803E-03    4.66       1.8  T
   4    -67.8486155 -0.246840E-06  0.499E-03    4.66       2.9  T
   5    -67.8486155 -0.349802E-07  0.287E-03    4.66       5.0  T
   6    -67.8486155 -0.136513E-07  0.319E-04    4.66      45.2  T
   7    -67.8486155 -0.164928E-08  0.796E-05    4.66     181.3  T
     SCC iter.                  ...        0 min,  0.124 sec
     gradient                   ...        0 min,  0.044 sec
 * total energy  :   -67.1919008 Eh     change       -0.1329235E-02 Eh
   gradient norm :     0.0120475 Eh/α   predicted    -0.1067521E-02 ( -19.69%)
   displ. norm   :     0.6828910 α      lambda       -0.1622091E-02
   maximum displ.:     0.4703273 α      in ANC's #8, #4, #5, ...

........................................................................
.............................. CYCLE   28 ..............................
........................................................................

 iter      E             dE          RMSdq      gap      omega  full diag
   1    -67.8465699 -0.678466E+02  0.770E-02    4.65       0.0  T
   2    -67.8465801 -0.101995E-04  0.452E-02    4.65       1.0  T
   3    -67.8465812 -0.110855E-05  0.107E-02    4.65       1.3  T
   4    -67.8465815 -0.327002E-06  0.649E-03    4.66       2.2  T
   5    -67.8465816 -0.623294E-07  0.343E-03    4.65       4.2  T
   6    -67.8465816 -0.291155E-07  0.348E-04    4.66      41.5  T
   7    -67.8465816 -0.135343E-08  0.141E-04    4.66     102.2  T
     SCC iter.                  ...        0 min,  0.059 sec
     gradient                   ...        0 min,  0.044 sec
 * total energy  :   -67.1931683 Eh     change       -0.1267465E-02 Eh
   gradient norm :     0.0159487 Eh/α   predicted    -0.1189270E-02 (  -6.17%)
   displ. norm   :     0.6275225 α      lambda       -0.1524290E-02
   maximum displ.:     0.4513254 α      in ANC's #8, #5, #4, ...

........................................................................
.............................. CYCLE   29 ..............................
........................................................................

 iter      E             dE          RMSdq      gap      omega  full diag
   1    -67.8491333 -0.678491E+02  0.753E-02    4.63       0.0  T
   2    -67.8491415 -0.824193E-05  0.438E-02    4.63       1.0  T
   3    -67.8491421 -0.623684E-06  0.703E-03    4.63       2.1  T
   4    -67.8491425 -0.403813E-06  0.359E-03    4.64       4.0  T
   5    -67.8491426 -0.671988E-07  0.213E-03    4.64       6.8  T
   6    -67.8491426 -0.539676E-08  0.413E-04    4.64      35.0  T
   7    -67.8491426 -0.108190E-08  0.138E-04    4.64     104.6  T
     SCC iter.                  ...        0 min,  0.125 sec
     gradient                   ...        0 min,  0.054 sec
 * total energy  :   -67.1943599 Eh     change       -0.1191650E-02 Eh
   gradient norm :     0.0095478 Eh/α   predicted    -0.1062274E-02 ( -10.86%)
   displ. norm   :     0.6484015 α      lambda       -0.1159134E-02
   maximum displ.:     0.4580219 α      in ANC's #8, #5, #4, ...

........................................................................
.............................. CYCLE   30 ..............................
........................................................................

 iter      E             dE          RMSdq      gap      omega  full diag
   1    -67.8503503 -0.678504E+02  0.699E-02    4.65       0.0  T
   2    -67.8503537 -0.342784E-05  0.414E-02    4.65       1.0  T
   3    -67.8503541 -0.362610E-06  0.479E-03    4.65       3.0  T
   4    -67.8503543 -0.226533E-06  0.233E-03    4.65       6.2  T
   5    -67.8503544 -0.347159E-07  0.104E-03    4.65      13.9  T
   6    -67.8503544 -0.198261E-08  0.325E-04    4.65      44.4  T
   7    -67.8503544 -0.555517E-09  0.115E-04    4.65     125.2  T
     SCC iter.                  ...        0 min,  0.123 sec
     gradient                   ...        0 min,  0.053 sec
 * total energy  :   -67.1952613 Eh     change       -0.9014093E-03 Eh
   gradient norm :     0.0128872 Eh/α   predicted    -0.8232316E-03 (  -8.67%)
   displ. norm   :     0.6037767 α      lambda       -0.9583645E-03
   maximum displ.:     0.4196727 α      in ANC's #8, #5, #4, ...

........................................................................
.............................. CYCLE   31 ..............................
........................................................................

 iter      E             dE          RMSdq      gap      omega  full diag
   1    -67.8474678 -0.678475E+02  0.638E-02    4.63       0.0  T
   2    -67.8474714 -0.359616E-05  0.375E-02    4.64       1.0  T
   3    -67.8474719 -0.497020E-06  0.461E-03    4.64       3.1  T
   4    -67.8474721 -0.193352E-06  0.231E-03    4.64       6.2  T
   5    -67.8474721 -0.272859E-07  0.123E-03    4.64      11.7  T
   6    -67.8474721 -0.203599E-08  0.423E-04    4.64      34.2  T
   7    -67.8474721 -0.799275E-09  0.126E-04    4.64     114.4  T
     SCC iter.                  ...        0 min,  0.077 sec
     gradient                   ...        0 min,  0.050 sec
 * total energy  :   -67.1959306 Eh     change       -0.6693144E-03 Eh
   gradient norm :     0.0095657 Eh/α   predicted    -0.6538671E-03 (  -2.31%)
   displ. norm   :     0.5004631 α      lambda       -0.8840430E-03
   maximum displ.:     0.3521788 α      in ANC's #8, #5, #4, ...

........................................................................
.............................. CYCLE   32 ..............................
........................................................................

 iter      E             dE          RMSdq      gap      omega  full diag
   1    -67.8539428 -0.678539E+02  0.449E-02    4.66       0.0  T
   2    -67.8539477 -0.488434E-05  0.277E-02    4.66       1.0  T
   3    -67.8539478 -0.106609E-06  0.100E-02    4.66       1.4  T
   4    -67.8539483 -0.520569E-06  0.393E-03    4.66       3.7  T
   5    -67.8539484 -0.585447E-07  0.182E-03    4.66       7.9  T
   6    -67.8539484 -0.266955E-08  0.276E-04    4.66      52.4  T
   7    -67.8539484 -0.502723E-09  0.135E-04    4.66     106.7  T
     SCC iter.                  ...        0 min,  0.124 sec
     gradient                   ...        0 min,  0.102 sec
 * total energy  :   -67.1965501 Eh     change       -0.6194551E-03 Eh
   gradient norm :     0.0104866 Eh/α   predicted    -0.5527346E-03 ( -10.77%)
   displ. norm   :     0.5784444 α      lambda       -0.7609606E-03
   maximum displ.:     0.3776968 α      in ANC's #8, #5, #4, ...

........................................................................
.............................. CYCLE   33 ..............................
........................................................................

 iter      E             dE          RMSdq      gap      omega  full diag
   1    -67.8499052 -0.678499E+02  0.570E-02    4.63       0.0  T
   2    -67.8499091 -0.391456E-05  0.352E-02    4.64       1.0  T
   3    -67.8499098 -0.685617E-06  0.702E-03    4.64       2.1  T
   4    -67.8499099 -0.134771E-06  0.342E-03    4.64       4.2  T
   5    -67.8499099 -0.170230E-07  0.152E-03    4.64       9.5  T
   6    -67.8499099 -0.678114E-08  0.338E-04    4.64      42.7  T
   7    -67.8499099 -0.118412E-08  0.180E-04    4.64      80.0  T
     SCC iter.                  ...        0 min,  0.060 sec
     gradient                   ...        0 min,  0.047 sec
 * total energy  :   -67.1970552 Eh     change       -0.5051474E-03 Eh
   gradient norm :     0.0128544 Eh/α   predicted    -0.5077892E-03 (   0.52%)
   displ. norm   :     0.5207654 α      lambda       -0.6535184E-03
   maximum displ.:     0.3120377 α      in ANC's #8, #5, #4, ...

........................................................................
.............................. CYCLE   34 ..............................
........................................................................

 iter      E             dE          RMSdq      gap      omega  full diag
   1    -67.8524687 -0.678525E+02  0.475E-02    4.71       0.0  T
   2    -67.8524727 -0.395374E-05  0.294E-02    4.70       1.0  T
   3    -67.8524723  0.353285E-06  0.887E-03    4.70       1.6  T
   4    -67.8524733 -0.101278E-05  0.368E-03    4.69       3.9  T
   5    -67.8524733 -0.152499E-07  0.140E-03    4.69      10.3  T
   6    -67.8524733 -0.252024E-08  0.302E-04    4.69      47.7  T
   7    -67.8524733 -0.853262E-09  0.958E-05    4.69     150.7  T
     SCC iter.                  ...        0 min,  0.127 sec
     gradient                   ...        0 min,  0.089 sec
 * total energy  :   -67.1974740 Eh     change       -0.4187855E-03 Eh
   gradient norm :     0.0080298 Eh/α   predicted    -0.4153772E-03 (  -0.81%)
   displ. norm   :     0.4464788 α      lambda       -0.4285840E-03
   maximum displ.:     0.2557940 α      in ANC's #8, #5, #4, ...

........................................................................
.............................. CYCLE   35 ..............................
........................................................................

 iter      E             dE          RMSdq      gap      omega  full diag
   1    -67.8508430 -0.678508E+02  0.473E-02    4.62       0.0  T
   2    -67.8508472 -0.415315E-05  0.291E-02    4.63       1.0  T
   3    -67.8508467  0.429934E-06  0.840E-03    4.63       1.7  T
   4    -67.8508478 -0.109448E-05  0.335E-03    4.64       4.3  T
   5    -67.8508478 -0.112038E-07  0.165E-03    4.64       8.8  T
   6    -67.8508479 -0.204939E-08  0.329E-04    4.64      43.9  T
   7    -67.8508479 -0.770044E-09  0.816E-05    4.64     177.0  T
     SCC iter.                  ...        0 min,  0.094 sec
     gradient                   ...        0 min,  0.048 sec
 * total energy  :   -67.1977264 Eh     change       -0.2524228E-03 Eh
   gradient norm :     0.0100090 Eh/α   predicted    -0.2570121E-03 (   1.82%)
   displ. norm   :     0.3983284 α      lambda       -0.3499326E-03
   maximum displ.:     0.2328624 α      in ANC's #5, #4, #8, ...

........................................................................
.............................. CYCLE   36 ..............................
........................................................................

 iter      E             dE          RMSdq      gap      omega  full diag
   1    -67.8519646 -0.678520E+02  0.332E-02    4.65       0.0  T
   2    -67.8519664 -0.178283E-05  0.206E-02    4.64       1.0  T
   3    -67.8519667 -0.285132E-06  0.544E-03    4.64       2.7  T
   4    -67.8519667 -0.568568E-07  0.329E-03    4.64       4.4  T
   5    -67.8519667 -0.570270E-08  0.122E-03    4.64      11.8  T
   6    -67.8519667 -0.242144E-08  0.155E-04    4.64      93.3  T
   7    -67.8519667 -0.314856E-09  0.655E-05    4.64     220.4  T
     SCC iter.                  ...        0 min,  0.081 sec
     gradient                   ...        0 min,  0.050 sec
 * total energy  :   -67.1979348 Eh     change       -0.2083338E-03 Eh
   gradient norm :     0.0098790 Eh/α   predicted    -0.2027303E-03 (  -2.69%)
   displ. norm   :     0.3612997 α      lambda       -0.2842369E-03
   maximum displ.:     0.2291843 α      in ANC's #4, #5, #8, ...

........................................................................
.............................. CYCLE   37 ..............................
........................................................................

 iter      E             dE          RMSdq      gap      omega  full diag
   1    -67.8514569 -0.678515E+02  0.261E-02    4.68       0.0  T
   2    -67.8514588 -0.191643E-05  0.156E-02    4.67       1.0  T
   3    -67.8514588 -0.711129E-07  0.450E-03    4.67       3.2  T
   4    -67.8514590 -0.105804E-06  0.192E-03    4.67       7.5  T
   5    -67.8514590 -0.144388E-07  0.115E-03    4.67      12.5  T
   6    -67.8514590 -0.824826E-09  0.228E-04    4.67      63.4  T
   7    -67.8514590 -0.530136E-09  0.652E-05    4.67     221.3  T
     SCC iter.                  ...        0 min,  0.101 sec
     gradient                   ...        0 min,  0.097 sec
 * total energy  :   -67.1981286 Eh     change       -0.1937962E-03 Eh
   gradient norm :     0.0073019 Eh/α   predicted    -0.1606751E-03 ( -17.09%)
   displ. norm   :     0.3836078 α      lambda       -0.3028238E-03
   maximum displ.:     0.2446903 α      in ANC's #5, #4, #8, ...

........................................................................
.............................. CYCLE   38 ..............................
........................................................................

 iter      E             dE          RMSdq      gap      omega  full diag
   1    -67.8522882 -0.678523E+02  0.268E-02    4.65       0.0  T
   2    -67.8522892 -0.107538E-05  0.162E-02    4.65       1.0  T
   3    -67.8522894 -0.132556E-06  0.422E-03    4.66       3.4  T
   4    -67.8522895 -0.157255E-06  0.251E-03    4.66       5.7  T
   5    -67.8522895 -0.863189E-08  0.133E-03    4.66      10.9  T
   6    -67.8522895 -0.155785E-08  0.177E-04    4.66      81.3  T
   7    -67.8522895 -0.234721E-09  0.937E-05    4.66     154.0  T
     SCC iter.                  ...        0 min,  0.102 sec
     gradient                   ...        0 min,  0.052 sec
 * total energy  :   -67.1983084 Eh     change       -0.1798710E-03 Eh
   gradient norm :     0.0083024 Eh/α   predicted    -0.1736943E-03 (  -3.43%)
   displ. norm   :     0.4091137 α      lambda       -0.3096097E-03
   maximum displ.:     0.2820863 α      in ANC's #4, #5, #10, ...

........................................................................
.............................. CYCLE   39 ..............................
........................................................................

 iter      E             dE          RMSdq      gap      omega  full diag
   1    -67.8534576 -0.678535E+02  0.286E-02    4.68       0.0  T
   2    -67.8534585 -0.857164E-06  0.171E-02    4.68       1.0  T
   3    -67.8534585 -0.296969E-07  0.330E-03    4.68       4.4  T
   4    -67.8534587 -0.173609E-06  0.189E-03    4.68       7.6  T
   5    -67.8534587 -0.441972E-08  0.110E-03    4.68      13.1  T
   6    -67.8534587 -0.594127E-09  0.128E-04    4.68     113.0  T
   7    -67.8534587 -0.215906E-09  0.474E-05    4.68     304.7  T
     SCC iter.                  ...        0 min,  0.077 sec
     gradient                   ...        0 min,  0.050 sec
 * total energy  :   -67.1985220 Eh     change       -0.2135311E-03 Eh
   gradient norm :     0.0075366 Eh/α   predicted    -0.1807191E-03 ( -15.37%)
   displ. norm   :     0.4542053 α      lambda       -0.2701092E-03
   maximum displ.:     0.3194779 α      in ANC's #4, #5, #10, ...

........................................................................
.............................. CYCLE   40 ..............................
........................................................................

 iter      E             dE          RMSdq      gap      omega  full diag
   1    -67.8520580 -0.678521E+02  0.403E-02    4.67       0.0  T
   2    -67.8520599 -0.192514E-05  0.237E-02    4.67       1.0  T
   3    -67.8520602 -0.205021E-06  0.333E-03    4.68       4.3  T
   4    -67.8520602 -0.435151E-07  0.161E-03    4.68       9.0  T
   5    -67.8520602 -0.260098E-08  0.855E-04    4.68      16.9  T
   6    -67.8520602 -0.648285E-09  0.112E-04    4.68     128.8  T
     SCC iter.                  ...        0 min,  0.055 sec
     gradient                   ...        0 min,  0.082 sec
 * total energy  :   -67.1987469 Eh     change       -0.2249717E-03 Eh
   gradient norm :     0.0070918 Eh/α   predicted    -0.1629206E-03 ( -27.58%)
   displ. norm   :     0.6251498 α      lambda       -0.4818794E-03
   maximum displ.:     0.4134166 α      in ANC's #4, #5, #10, ...

........................................................................
.............................. CYCLE   41 ..............................
........................................................................

 iter      E             dE          RMSdq      gap      omega  full diag
   1    -67.8505208 -0.678505E+02  0.766E-02    4.69       0.0  T
   2    -67.8505282 -0.743166E-05  0.448E-02    4.69       1.0  T
   3    -67.8505288 -0.650565E-06  0.712E-03    4.70       2.0  T
   4    -67.8505292 -0.382812E-06  0.297E-03    4.69       4.9  T
   5    -67.8505293 -0.548147E-07  0.148E-03    4.69       9.8  T
   6    -67.8505293 -0.365854E-08  0.222E-04    4.69      65.0  T
   7    -67.8505293 -0.487645E-09  0.806E-05    4.69     179.1  T
     SCC iter.                  ...        0 min,  0.081 sec
     gradient                   ...        0 min,  0.086 sec
 * total energy  :   -67.1991282 Eh     change       -0.3812485E-03 Eh
   gradient norm :     0.0122553 Eh/α   predicted    -0.3351079E-03 ( -12.10%)
   displ. norm   :     0.6276018 α      lambda       -0.6548575E-03
   maximum displ.:     0.3404557 α      in ANC's #4, #5, #8, ...

........................................................................
.............................. CYCLE   42 ..............................
........................................................................

 iter      E             dE          RMSdq      gap      omega  full diag
   1    -67.8496398 -0.678496E+02  0.100E-01    4.69       0.0  T
   2    -67.8496508 -0.109499E-04  0.591E-02    4.69       1.0  T
   3    -67.8496521 -0.129841E-05  0.843E-03    4.70       1.7  T
   4    -67.8496524 -0.326576E-06  0.395E-03    4.70       3.7  T
   5    -67.8496524 -0.314050E-07  0.226E-03    4.70       6.4  T
   6    -67.8496524 -0.707938E-08  0.504E-04    4.70      28.6  T
   7    -67.8496524 -0.246067E-08  0.176E-04    4.70      82.2  T
     SCC iter.                  ...        0 min,  0.064 sec
     gradient                   ...        0 min,  0.049 sec
 * total energy  :   -67.1995672 Eh     change       -0.4389902E-03 Eh
   gradient norm :     0.0173214 Eh/α   predicted    -0.4564041E-03 (   3.97%)
   displ. norm   :     0.4547285 α      lambda       -0.6768454E-03
   maximum displ.:     0.2163168 α      in ANC's #5, #4, #8, ...
 * RMSD in coord.:     1.2095865 α      energy gain  -0.2597733E-01 Eh

generating ANC from exact Hessian ...
Using Lindh-Hessian (1995)
 Shifting diagonal of input Hessian by    1.0370266022141136E-002
 Lowest  eigenvalues of input Hessian
    0.010000    0.010057    0.010124    0.010259    0.010317    0.000000
    0.000000    0.000000    0.000000    0.000000    0.000000    0.010511
    0.010651    0.010853    0.010894    0.010986    0.011065    0.011097
 Highest eigenvalues
    1.426068    1.428557    1.434592    1.472743    1.768200    2.299568


........................................................................
.............................. CYCLE   43 ..............................
........................................................................

 iter      E             dE          RMSdq      gap      omega  full diag
   1    -67.8528063 -0.678528E+02  0.769E-02    4.70       0.0  T
   2    -67.8528100 -0.370122E-05  0.451E-02    4.70       1.0  T
   3    -67.8528109 -0.878067E-06  0.538E-03    4.70       2.7  T
   4    -67.8528110 -0.116544E-06  0.312E-03    4.70       4.6  T
   5    -67.8528110 -0.125047E-07  0.166E-03    4.70       8.7  T
   6    -67.8528110 -0.726970E-08  0.303E-04    4.70      47.7  T
   7    -67.8528110 -0.109399E-08  0.134E-04    4.70     107.7  T
     SCC iter.                  ...        0 min,  0.136 sec
     gradient                   ...        0 min,  0.046 sec
 * total energy  :   -67.1998353 Eh     change       -0.2681298E-03 Eh
   gradient norm :     0.0194195 Eh/α   predicted     0.0000000E+00 (-100.00%)
   displ. norm   :     0.1489730 α      lambda       -0.7307432E-03
   maximum displ.:     0.0565820 α      in ANC's #25, #6, #43, ...

........................................................................
.............................. CYCLE   44 ..............................
........................................................................

 iter      E             dE          RMSdq      gap      omega  full diag
   1    -67.8530614 -0.678531E+02  0.671E-02    4.71       0.0  T
   2    -67.8530658 -0.434870E-05  0.394E-02    4.71       1.0  T
   3    -67.8530665 -0.730473E-06  0.567E-03    4.71       2.5  T
   4    -67.8530666 -0.119131E-06  0.295E-03    4.71       4.9  T
   5    -67.8530666 -0.120249E-07  0.162E-03    4.71       8.9  T
   6    -67.8530667 -0.531715E-08  0.297E-04    4.71      48.6  T
   7    -67.8530667 -0.861434E-09  0.130E-04    4.71     110.8  T
     SCC iter.                  ...        0 min,  0.125 sec
     gradient                   ...        0 min,  0.087 sec
 * total energy  :   -67.2004382 Eh     change       -0.6028553E-03 Eh
   gradient norm :     0.0073917 Eh/α   predicted    -0.3734899E-03 ( -38.05%)
   displ. norm   :     0.4119167 α      lambda       -0.1204564E-02
   maximum displ.:     0.1670181 α      in ANC's #6, #43, #25, ...

........................................................................
.............................. CYCLE   45 ..............................
........................................................................

 iter      E             dE          RMSdq      gap      omega  full diag
   1    -67.8481952 -0.678482E+02  0.156E-01    4.71       0.0  T
   2    -67.8482257 -0.304528E-04  0.922E-02    4.71       1.0  T
   3    -67.8482315 -0.585063E-05  0.156E-02    4.71       1.0  T
   4    -67.8482324 -0.842095E-06  0.782E-03    4.72       1.8  T
   5    -67.8482324 -0.552947E-07  0.372E-03    4.72       3.9  T
   6    -67.8482325 -0.286973E-07  0.738E-04    4.72      19.6  T
   7    -67.8482325 -0.566627E-08  0.325E-04    4.72      44.5  T
     SCC iter.                  ...        0 min,  0.076 sec
     gradient                   ...        0 min,  0.048 sec
 * total energy  :   -67.2005891 Eh     change       -0.1509213E-03 Eh
   gradient norm :     0.0339209 Eh/α   predicted    -0.7045936E-03 ( 366.86%)
   displ. norm   :     0.1491302 α      lambda       -0.1413691E-02
   maximum displ.:     0.0809901 α      in ANC's #25, #39, #23, ...

........................................................................
.............................. CYCLE   46 ..............................
........................................................................

 iter      E             dE          RMSdq      gap      omega  full diag
   1    -67.8523891 -0.678524E+02  0.101E-01    4.71       0.0  T
   2    -67.8523946 -0.556930E-05  0.596E-02    4.71       1.0  T
   3    -67.8523962 -0.161258E-05  0.592E-03    4.70       2.4  T
   4    -67.8523964 -0.163165E-06  0.315E-03    4.70       4.6  T
   5    -67.8523964 -0.146402E-07  0.167E-03    4.70       8.6  T
   6    -67.8523964 -0.355148E-08  0.274E-04    4.70      52.6  T
   7    -67.8523964 -0.379913E-09  0.162E-04    4.70      89.1  T
     SCC iter.                  ...        0 min,  0.115 sec
     gradient                   ...        0 min,  0.076 sec
 * total energy  :   -67.2012698 Eh     change       -0.6807540E-03 Eh
   gradient norm :     0.0112296 Eh/α   predicted    -0.7225669E-03 (   6.14%)
   displ. norm   :     0.2371096 α      lambda       -0.4609665E-03
   maximum displ.:     0.1122603 α      in ANC's #6, #2, #31, ...

........................................................................
.............................. CYCLE   47 ..............................
........................................................................

 iter      E             dE          RMSdq      gap      omega  full diag
   1    -67.8514990 -0.678515E+02  0.532E-02    4.69       0.0  T
   2    -67.8515007 -0.170647E-05  0.320E-02    4.69       1.0  T
   3    -67.8515012 -0.502353E-06  0.411E-03    4.69       3.5  T
   4    -67.8515013 -0.915402E-07  0.241E-03    4.69       6.0  T
   5    -67.8515013 -0.124505E-07  0.914E-04    4.69      15.8  T
   6    -67.8515013 -0.314468E-08  0.194E-04    4.69      74.3  T
     SCC iter.                  ...        0 min,  0.087 sec
     gradient                   ...        0 min,  0.048 sec
 * total energy  :   -67.2017038 Eh     change       -0.4340064E-03 Eh
   gradient norm :     0.0112863 Eh/α   predicted    -0.2434418E-03 ( -43.91%)
   displ. norm   :     0.7543151 α      lambda       -0.1568133E-02
   maximum displ.:     0.3322363 α      in ANC's #6, #2, #31, ...

........................................................................
.............................. CYCLE   48 ..............................
........................................................................

 iter      E             dE          RMSdq      gap      omega  full diag
   1    -67.8422866 -0.678423E+02  0.169E-01    4.61       0.0  T
   2    -67.8423138 -0.272788E-04  0.102E-01    4.63       1.0  T
   3    -67.8423182 -0.433286E-05  0.155E-02    4.63       1.0  T
   4    -67.8423204 -0.219886E-05  0.829E-03    4.64       1.7  T
   5    -67.8423205 -0.151624E-06  0.326E-03    4.64       4.4  T
   6    -67.8423206 -0.389966E-07  0.971E-04    4.64      14.9  T
   7    -67.8423206 -0.543118E-08  0.258E-04    4.64      55.9  T
     SCC iter.                  ...        0 min,  0.088 sec
     gradient                   ...        0 min,  0.062 sec
 * total energy  :   -67.2024228 Eh     change       -0.7189927E-03 Eh
   gradient norm :     0.0290155 Eh/α   predicted    -0.1230202E-02 (  71.10%)
   displ. norm   :     0.1485181 α      lambda       -0.1167617E-02
   maximum displ.:     0.0585303 α      in ANC's #35, #31, #5, ...

........................................................................
.............................. CYCLE   49 ..............................
........................................................................

 iter      E             dE          RMSdq      gap      omega  full diag
   1    -67.8527141 -0.678527E+02  0.657E-02    4.68       0.0  T
   2    -67.8527177 -0.359741E-05  0.387E-02    4.68       1.0  T
   3    -67.8527187 -0.958569E-06  0.567E-03    4.68       2.5  T
   4    -67.8527190 -0.294961E-06  0.278E-03    4.68       5.2  T
   5    -67.8527190 -0.408677E-07  0.123E-03    4.68      11.8  T
   6    -67.8527190 -0.306102E-08  0.453E-04    4.68      31.9  T
   7    -67.8527190 -0.902531E-09  0.149E-04    4.68      97.1  T
     SCC iter.                  ...        0 min,  0.059 sec
     gradient                   ...        0 min,  0.046 sec
 * total energy  :   -67.2030653 Eh     change       -0.6424273E-03 Eh
   gradient norm :     0.0121929 Eh/α   predicted    -0.5966866E-03 (  -7.12%)
   displ. norm   :     0.3014332 α      lambda       -0.7334189E-03
   maximum displ.:     0.1330677 α      in ANC's #6, #5, #2, ...

........................................................................
.............................. CYCLE   50 ..............................
........................................................................

 iter      E             dE          RMSdq      gap      omega  full diag
   1    -67.8544271 -0.678544E+02  0.849E-02    4.71       0.0  T
   2    -67.8544390 -0.119336E-04  0.497E-02    4.70       1.0  T
   3    -67.8544394 -0.392742E-06  0.898E-03    4.71       1.6  T
   4    -67.8544403 -0.827383E-06  0.291E-03    4.71       5.0  T
   5    -67.8544403 -0.771040E-07  0.147E-03    4.71       9.8  T
   6    -67.8544404 -0.435310E-08  0.562E-04    4.71      25.7  T
   7    -67.8544404 -0.895952E-09  0.143E-04    4.71     100.7  T
     SCC iter.                  ...        0 min,  0.065 sec
     gradient                   ...        0 min,  0.051 sec
 * total energy  :   -67.2035789 Eh     change       -0.5136290E-03 Eh
   gradient norm :     0.0105855 Eh/α   predicted    -0.4000279E-03 ( -22.12%)
   displ. norm   :     0.5209522 α      lambda       -0.8603082E-03
   maximum displ.:     0.2158296 α      in ANC's #6, #5, #2, ...

........................................................................
.............................. CYCLE   51 ..............................
........................................................................

 iter      E             dE          RMSdq      gap      omega  full diag
   1    -67.8516921 -0.678517E+02  0.123E-01    4.71       0.0  T
   2    -67.8517191 -0.269688E-04  0.725E-02    4.71       1.0  T
   3    -67.8517204 -0.131033E-05  0.117E-02    4.72       1.2  T
   4    -67.8517216 -0.123652E-05  0.438E-03    4.72       3.3  T
   5    -67.8517217 -0.742996E-07  0.239E-03    4.72       6.1  T
   6    -67.8517217 -0.152829E-07  0.840E-04    4.72      17.2  T
   7    -67.8517217 -0.271545E-08  0.228E-04    4.72      63.4  T
     SCC iter.                  ...        0 min,  0.125 sec
     gradient                   ...        0 min,  0.085 sec
 * total energy  :   -67.2041671 Eh     change       -0.5882468E-03 Eh
   gradient norm :     0.0142112 Eh/α   predicted    -0.5468931E-03 (  -7.03%)
   displ. norm   :     0.3894365 α      lambda       -0.8316114E-03
   maximum displ.:     0.1638482 α      in ANC's #5, #4, #6, ...

........................................................................
.............................. CYCLE   52 ..............................
........................................................................

 iter      E             dE          RMSdq      gap      omega  full diag
   1    -67.8546257 -0.678546E+02  0.969E-02    4.76       0.0  T
   2    -67.8546446 -0.188728E-04  0.566E-02    4.75       1.0  T
   3    -67.8546453 -0.692400E-06  0.107E-02    4.76       1.4  T
   4    -67.8546469 -0.159007E-05  0.391E-03    4.75       3.7  T
   5    -67.8546469 -0.767474E-07  0.241E-03    4.75       6.0  T
[...]
           -------------------------------------------------

          ...................................................
          :                      SETUP                      :
          :.................................................:
          :  # basis functions                 102          :
          :  # atomic orbitals                 102          :
          :  # shells                           66          :
          :  # electrons                       114          :
          :  max. iterations                   250          :
          :  Hamiltonian                  GFN2-xTB          :
          :  restarted?                      false          :
          :  GBSA solvation                   true          :
          :  PC potential                    false          :
          :  electronic temp.          300.0000000     K    :
          :  accuracy                    1.0000000          :
          :  -> integral cutoff          0.2500000E+02      :
          :  -> integral neglect         0.1000000E-07      :
          :  -> SCF convergence          0.1000000E-05 Eh   :
          :  -> wf. convergence          0.1000000E-03 e    :
          :  Broyden damping             0.4000000          :
          :  net charge                          2          :
          :  unpaired electrons                  0          :
          ...................................................

 iter      E             dE          RMSdq      gap      omega  full diag
   1    -67.8679003 -0.678679E+02  0.348E-05    4.85       0.0  T
   2    -67.8679003 -0.189004E-11  0.224E-05    4.85     644.4  T
   3    -67.8679003  0.270006E-12  0.764E-06    4.85    1888.6  T

   *** convergence criteria satisfied after 3 iterations ***

         #    Occupation            Energy/Eh            Energy/eV
      -------------------------------------------------------------
         1        2.0000           -0.7424937             -20.2043
       ...           ...                  ...                  ...
        51        2.0000           -0.4363705             -11.8742
        52        2.0000           -0.4289481             -11.6723
        53        2.0000           -0.4278017             -11.6411
        54        2.0000           -0.4242672             -11.5449
        55        2.0000           -0.4193086             -11.4100
        56        2.0000           -0.4164240             -11.3315
        57        2.0000           -0.4134485             -11.2505 (HOMO)
        58                         -0.2353156              -6.4033 (LUMO)
        59                         -0.1757875              -4.7834
        60                         -0.0021708              -0.0591
        61                          0.0266014               0.7239
        62                          0.0358222               0.9748
       ...                                ...                  ...
       102                          1.1556619              31.4472
      -------------------------------------------------------------
                  HL-Gap            0.1781329 Eh            4.8472 eV
             Fermi-level           -0.3243820 Eh           -8.8269 eV

 SCC (total)                   0 d,  0 h,  0 min,  0.099 sec
 SCC setup                      ...        0 min,  0.003 sec (  2.922%)
 Dispersion                     ...        0 min,  0.001 sec (  0.547%)
 classical contributions        ...        0 min,  0.000 sec (  0.222%)
 integral evaluation            ...        0 min,  0.010 sec (  9.578%)
 iterations                     ...        0 min,  0.026 sec ( 26.208%)
 molecular gradient             ...        0 min,  0.058 sec ( 58.037%)
 printout                       ...        0 min,  0.002 sec (  2.457%)

         :::::::::::::::::::::::::::::::::::::::::::::::::::::
         ::                     SUMMARY                     ::
         :::::::::::::::::::::::::::::::::::::::::::::::::::::
         :: total energy             -67.220394841846 Eh    ::
         :: total w/o Gsasa/hb       -67.156420232375 Eh    ::
         :: gradient norm              0.000223881868 Eh/a0 ::
         :: HOMO-LUMO gap              4.847243527900 eV    ::
         ::.................................................::
         :: SCC energy               -67.867973594959 Eh    ::
         :: -> isotropic ES            0.570566998498 Eh    ::
         :: -> anisotropic ES         -0.022658657079 Eh    ::
         :: -> anisotropic XC          0.014062127204 Eh    ::
         :: -> dispersion             -0.031472861485 Eh    ::
         :: -> Gsolv                  -0.385180609051 Eh    ::
         ::    -> Gelec               -0.321205999580 Eh    ::
         ::    -> Gsasa                0.001424960337 Eh    ::
         ::    -> Ghb                 -0.066480329506 Eh    ::
         ::    -> Gshift               0.001080759698 Eh    ::
         :: repulsion energy           0.647578753113 Eh    ::
         :: add. restraining           0.000000000000 Eh    ::
         :: total charge               2.000000000000 e     ::
         :::::::::::::::::::::::::::::::::::::::::::::::::::::

           -------------------------------------------------
          |                Property Printout                |
           -------------------------------------------------

    * Orbital Energies and Occupations

         #    Occupation            Energy/Eh            Energy/eV
      -------------------------------------------------------------
         1        2.0000           -0.7424937             -20.2043
       ...           ...                  ...                  ...
        45        2.0000           -0.4623721             -12.5818
        46        2.0000           -0.4619596             -12.5706
        47        2.0000           -0.4587666             -12.4837
        48        2.0000           -0.4584323             -12.4746
        49        2.0000           -0.4495533             -12.2330
        50        2.0000           -0.4464515             -12.1486
        51        2.0000           -0.4363705             -11.8742
        52        2.0000           -0.4289481             -11.6723
        53        2.0000           -0.4278017             -11.6411
        54        2.0000           -0.4242672             -11.5449
        55        2.0000           -0.4193086             -11.4100
        56        2.0000           -0.4164240             -11.3315
        57        2.0000           -0.4134485             -11.2505 (HOMO)
        58                         -0.2353156              -6.4033 (LUMO)
        59                         -0.1757875              -4.7834
        60                         -0.0021708              -0.0591
        61                          0.0266014               0.7239
        62                          0.0358222               0.9748
        63                          0.0437006               1.1892
        64                          0.0935533               2.5457
        65                          0.1014651               2.7610
        66                          0.1071482               2.9157
        67                          0.1127392               3.0678
        68                          0.1156404               3.1467
       ...                                ...                  ...
       102                          1.1556619              31.4472
      -------------------------------------------------------------
                  HL-Gap            0.1781329 Eh            4.8472 eV
             Fermi-level           -0.3243820 Eh           -8.8269 eV

     #   Z          covCN         q      C6AA      α(0)
     1   6 C        3.752    -0.110    22.655     6.788
     2   6 C        3.801    -0.058    21.624     6.621
     3   6 C        3.803    -0.063    21.701     6.632
     4   6 C        3.803    -0.064    21.735     6.637
     5   6 C        3.803    -0.063    21.703     6.632
     6   6 C        3.803    -0.070    21.842     6.654
     7   6 C        3.804    -0.060    21.655     6.625
     8   6 C        3.803    -0.125    22.883     6.810
     9   6 C        2.690     0.360    20.885     7.479
    10   8 O        0.856    -0.487    23.492     6.498
    11   8 O        1.653    -0.398    20.808     6.158
    12   1 H        0.804     0.411     0.465     1.071
    13   1 H        0.925     0.034     2.533     2.489
    14   1 H        0.925     0.033     2.545     2.495
    15   1 H        0.925     0.032     2.553     2.499
    16   1 H        0.924     0.030     2.580     2.512
    17   1 H        0.924     0.032     2.565     2.504
    18   1 H        0.924     0.027     2.627     2.534
    19   1 H        0.924     0.029     2.607     2.525
    20   1 H        0.924     0.033     2.550     2.497
    21   1 H        0.924     0.034     2.526     2.485
    22   1 H        0.924     0.026     2.647     2.544
    23   1 H        0.924     0.028     2.621     2.532
    24   1 H        0.924     0.043     2.405     2.425
    25   1 H        0.924     0.045     2.377     2.411
    26   1 H        0.924     0.034     2.534     2.489
    27   1 H        0.924     0.036     2.503     2.474
    28   1 H        0.924     0.106     1.731     2.058
    29   1 H        0.924     0.108     1.713     2.047
    30  48 Cd       4.093     0.455   190.654    26.503
    31   8 O        2.296    -0.555    24.054     6.624
    32   1 H        0.805     0.403     0.480     1.088
    33   1 H        0.805     0.401     0.482     1.091
    34   8 O        2.248    -0.539    23.681     6.572
    35   1 H        0.804     0.405     0.474     1.082
    36   1 H        0.798     0.436     0.425     1.024
    37   8 O        2.285    -0.558    24.114     6.632
    38   1 H        0.805     0.402     0.481     1.089
    39   1 H        0.805     0.399     0.486     1.095
    40   8 O        2.303    -0.546    23.839     6.594
    41   1 H        0.805     0.399     0.485     1.094
    42   1 H        0.806     0.395     0.494     1.104
    43   8 O        2.296    -0.549    23.902     6.603
    44   1 H        0.805     0.403     0.479     1.087
    45   1 H        0.805     0.404     0.478     1.086
    46   8 O        2.313    -0.540    23.705     6.576
    47   1 H        0.805     0.405     0.476     1.083
    48   1 H        0.806     0.395     0.493     1.102

 Mol. C6AA /au·bohr⁶  :      16757.158259
 Mol. C8AA /au·bohr⁸  :     426284.637985
 Mol. α(0) /au        :        195.256235


Wiberg/Mayer (AO) data.
largest (>0.10) Wiberg bond orders for each atom

 ---------------------------------------------------------------------------
     #   Z sym  total        # sym  WBO       # sym  WBO       # sym  WBO
 ---------------------------------------------------------------------------
     1   6 C    3.996 --     2 C    1.019    14 H    0.988    13 H    0.988
                            15 H    0.987
     2   6 C    3.997 --     1 C    1.019     3 C    1.008    16 H    0.979
                            17 H    0.978
     3   6 C    3.997 --     2 C    1.008     4 C    1.007    18 H    0.978
                            19 H    0.977
     4   6 C    3.997 --     3 C    1.007     5 C    1.007    20 H    0.978
                            21 H    0.977
     5   6 C    3.996 --     4 C    1.007     6 C    1.007    22 H    0.978
                            23 H    0.977
     6   6 C    3.995 --     7 C    1.007     5 C    1.007    24 H    0.977
                            25 H    0.976
     7   6 C    3.995 --     8 C    1.008     6 C    1.007    26 H    0.977
                            27 H    0.976
     8   6 C    3.990 --     7 C    1.008     9 C    0.992    29 H    0.942
                            28 H    0.942
     9   6 C    3.914 --    10 O    1.719    11 O    1.159     8 C    0.992
    10   8 O    1.990 --     9 C    1.719    11 O    0.157
    11   8 O    2.203 --     9 C    1.159    36 H    0.722    10 O    0.157
    12   1 H    0.831 --    34 O    0.819
    13   1 H    0.999 --     1 C    0.988
    14   1 H    0.999 --     1 C    0.988
    15   1 H    0.999 --     1 C    0.987
    16   1 H    0.999 --     2 C    0.979
    17   1 H    0.999 --     2 C    0.978
    18   1 H    0.999 --     3 C    0.978
    19   1 H    0.999 --     3 C    0.977
    20   1 H    0.999 --     4 C    0.978
    21   1 H    0.999 --     4 C    0.977
    22   1 H    0.999 --     5 C    0.978
    23   1 H    0.999 --     5 C    0.977
    24   1 H    0.998 --     6 C    0.977
    25   1 H    0.998 --     6 C    0.976
    26   1 H    0.999 --     7 C    0.977
    27   1 H    0.999 --     7 C    0.976
    28   1 H    0.988 --     8 C    0.942
    29   1 H    0.988 --     8 C    0.942
    30  48 Cd   2.144 --    46 O    0.348    43 O    0.338    40 O    0.337
                            31 O    0.331    37 O    0.324    34 O    0.306
    31   8 O    2.090 --    33 H    0.828    32 H    0.827    30 Cd   0.331
    32   1 H    0.838 --    31 O    0.827
    33   1 H    0.839 --    31 O    0.828
    34   8 O    2.141 --    35 H    0.824    12 H    0.819    30 Cd   0.306
    35   1 H    0.836 --    34 O    0.824
    36   1 H    0.810 --    11 O    0.722
    37   8 O    2.084 --    39 H    0.830    38 H    0.827    30 Cd   0.324
    38   1 H    0.838 --    37 O    0.827
    39   1 H    0.841 --    37 O    0.830
    40   8 O    2.110 --    41 H    0.829    42 H    0.818    30 Cd   0.337
    41   1 H    0.840 --    40 O    0.829
    42   1 H    0.844 --    40 O    0.818
    43   8 O    2.107 --    45 H    0.827    44 H    0.827    30 Cd   0.338
    44   1 H    0.837 --    43 O    0.827
    45   1 H    0.837 --    43 O    0.827
    46   8 O    2.122 --    47 H    0.826    48 H    0.822    30 Cd   0.348
    47   1 H    0.836 --    46 O    0.826
    48   1 H    0.843 --    46 O    0.822
 ---------------------------------------------------------------------------

Topologies differ in total number of bonds
Writing topology from bond orders to xtbtopo.mol

molecular dipole:
                 x           y           z       tot (Debye)
 q only:       32.868      12.987       1.164
   full:       32.839      12.972       1.126      89.790
molecular quadrupole (traceless):
                xx          xy          yy          xz          yz          zz
 q only:      510.916     298.556    -205.702      18.867       1.867    -305.213
  q+dip:      514.471     301.418    -207.516      17.941       0.421    -306.955
   full:      515.189     301.650    -207.536      18.204       0.521    -307.653

           -------------------------------------------------
          |                Geometry Summary                 |
           -------------------------------------------------

      molecular mass/u    :      378.7416428
   center of mass at/Å    :        5.4481617       1.5878415      -0.0213367
  moments of inertia/u·Å² :        0.6447368E+03   0.8454307E+04   0.8708681E+04
rotational constants/cm⁻¹ :        0.2614653E-01   0.1993970E-02   0.1935727E-02

 * 44 selected distances

     #   Z          #   Z                                           value/Å
     1   6 C        2   6 C                                       1.5241214
     2   6 C        3   6 C                                       1.5269460
     3   6 C        4   6 C                                       1.5266562
     4   6 C        5   6 C                                       1.5270532
     5   6 C        6   6 C                                       1.5263596
     6   6 C        7   6 C                                       1.5266223
     7   6 C        8   6 C                                       1.5262906
     9   6 C       10   8 O                                       1.2100718
     9   6 C       11   8 O                                       1.3324617
     1   6 C       13   1 H                                       1.0880134
     1   6 C       14   1 H                                       1.0879933
     1   6 C       15   1 H                                       1.0874909
     2   6 C       16   1 H                                       1.0923881
     2   6 C       17   1 H                                       1.0924297
     3   6 C       18   1 H                                       1.0928899
     3   6 C       19   1 H                                       1.0929907
     4   6 C       20   1 H                                       1.0924341
     4   6 C       21   1 H                                       1.0925596
     5   6 C       22   1 H                                       1.0927823
     5   6 C       23   1 H                                       1.0930089
     6   6 C       24   1 H                                       1.0917684
     6   6 C       25   1 H                                       1.0920042
     7   6 C       26   1 H                                       1.0921958
     7   6 C       27   1 H                                       1.0926753
     8   6 C       28   1 H                                       1.0918956
     8   6 C       29   1 H                                       1.0920807
    30  48 Cd      31   8 O                                       2.1494845
    31   8 O       32   1 H                                       0.9670484
    31   8 O       33   1 H                                       0.9663390 (min)
    12   1 H       34   8 O                                       0.9703628
    30  48 Cd      34   8 O                                       2.2292643 (max)
    34   8 O       35   1 H                                       0.9699342
    30  48 Cd      37   8 O                                       2.1713086
    37   8 O       38   1 H                                       0.9667160
    37   8 O       39   1 H                                       0.9666736
    30  48 Cd      40   8 O                                       2.1317650
    40   8 O       41   1 H                                       0.9668305
    40   8 O       42   1 H                                       0.9716775
    30  48 Cd      43   8 O                                       2.1496109
    43   8 O       44   1 H                                       0.9675012
    43   8 O       45   1 H                                       0.9688720
    30  48 Cd      46   8 O                                       2.1053891
    46   8 O       47   1 H                                       0.9672199
    46   8 O       48   1 H                                       0.9708967
Note: The following floating-point exceptions are signalling: IEEE_UNDERFLOW_FLAG IEEE_DENORMAL
normal termination of xtb

 * 5 distinct bonds (by element types)

   Z      Z             #   av. dist./Å        max./Å        min./Å
   1 H    6 C          17     1.0916236     1.0930089     1.0874909
   6 C    6 C           7     1.5262928     1.5270532     1.5241214
   1 H    8 O          12     0.9683393     0.9716775     0.9663390
   6 C    8 O           2     1.2712668     1.3324617     1.2100718
   8 O   48 Cd          6     2.1561371     2.2292643     2.1053891


optimized geometry written to: xtbopt.xyz


           -------------------------------------------------
          | TOTAL ENERGY              -67.220394841846 Eh   |
          | GRADIENT NORM               0.000223881868 Eh/α |
          | HOMO-LUMO GAP               4.847243527900 eV   |
           -------------------------------------------------

------------------------------------------------------------------------
 * finished run on 2026/05/26 at 02:15:30.174     
------------------------------------------------------------------------
 total:
 * wall-time:     0 d,  0 h,  0 min, 56.484 sec
 *  cpu-time:     0 d,  0 h,  1 min, 32.541 sec
 * ratio c/w:     1.638 speedup
 SCF:
 * wall-time:     0 d,  0 h,  0 min,  1.830 sec
 *  cpu-time:     0 d,  0 h,  0 min,  2.013 sec
 * ratio c/w:     1.100 speedup
 ANC optimizer:
 * wall-time:     0 d,  0 h,  0 min, 54.598 sec
 *  cpu-time:     0 d,  0 h,  1 min, 30.445 sec
 * ratio c/w:     1.657 speedup

