      -----------------------------------------------------------      
     |                   =====================                   |     
     |                           x T B                           |     
     |                   =====================                   |     
     |                         S. Grimme                         |     
     |          Mulliken Center for Theoretical Chemistry        |     
     |                    University of Bonn                     |     
      -----------------------------------------------------------      

   * xtb version 6.7.1 (edcfbbe) compiled by 'conda@c0858423619e' on 2025-09-04

   xtb is free software: you can redistribute it and/or modify it under
   the terms of the GNU Lesser General Public License as published by
   the Free Software Foundation, either version 3 of the License, or
   (at your option) any later version.
   
   xtb is distributed in the hope that it will be useful,
   but WITHOUT ANY WARRANTY; without even the implied warranty of
   MERCHANTABILITY or FITNESS FOR A PARTICULAR PURPOSE.  See the
   GNU Lesser General Public License for more details.
   
   Cite this work as:
   * C. Bannwarth, E. Caldeweyher, S. Ehlert, A. Hansen, P. Pracht,
     J. Seibert, S. Spicher, S. Grimme, WIREs Comput. Mol. Sci., 2020, 11,
     e01493. DOI: 10.1002/wcms.1493
   
   for GFN2-xTB:
   * C. Bannwarth, S. Ehlert and S. Grimme., J. Chem. Theory Comput., 2019,
     15, 1652-1671. DOI: 10.1021/acs.jctc.8b01176
   for GFN1-xTB:
   * S. Grimme, C. Bannwarth, P. Shushkov, J. Chem. Theory Comput., 2017,
     13, 1989-2009. DOI: 10.1021/acs.jctc.7b00118
   for GFN0-xTB:
   * P. Pracht, E. Caldeweyher, S. Ehlert, S. Grimme, ChemRxiv, 2019, preprint.
     DOI: 10.26434/chemrxiv.8326202.v1
   for GFN-FF:
   * S. Spicher and S. Grimme, Angew. Chem. Int. Ed., 2020, 59, 15665-15673.
     DOI: 10.1002/anie.202004239
   
   for ALPB and GBSA implicit solvation:
   * S. Ehlert, M. Stahn, S. Spicher, S. Grimme, J. Chem. Theory Comput.,
     2021, 17, 4250-4261. DOI: 10.1021/acs.jctc.1c00471
   
   for ddCOSMO and CPCM-X implicit solvation:
   * M. Stahn, S. Ehlert, S. Grimme, J. Phys. Chem. A,
     2023, XX, XXXX-XXXX. DOI: 10.1021/acs.jpca.3c04382
   
   for DFT-D4:
   * E. Caldeweyher, C. Bannwarth and S. Grimme, J. Chem. Phys., 2017,
     147, 034112. DOI: 10.1063/1.4993215
   * E. Caldeweyher, S. Ehlert, A. Hansen, H. Neugebauer, S. Spicher,
     C. Bannwarth and S. Grimme, J. Chem. Phys., 2019, 150, 154122.
     DOI: 10.1063/1.5090222
   * E. Caldeweyher, J.-M. Mewes, S. Ehlert and S. Grimme, Phys. Chem. Chem. Phys.
     2020, 22, 8499-8512. DOI: 10.1039/D0CP00502A
   
   for sTDA-xTB:
   * S. Grimme and C. Bannwarth, J. Chem. Phys., 2016, 145, 054103.
     DOI: 10.1063/1.4959605
   
   in the mass-spec context:
   * V. Asgeirsson, C. Bauer and S. Grimme, Chem. Sci., 2017, 8, 4879.
     DOI: 10.1039/c7sc00601b
   * J. Koopman and S. Grimme, ACS Omega 2019, 4, 12, 15120-15133.
     DOI: 10.1021/acsomega.9b02011
   
   for metadynamics refer to:
   * S. Grimme, J. Chem. Theory Comput., 2019, 155, 2847-2862
     DOI: 10.1021/acs.jctc.9b00143
   
   for SPH calculations refer to:
   * S. Spicher and S. Grimme, J. Chem. Theory Comput., 2021, 17, 1701-1714
     DOI: 10.1021/acs.jctc.0c01306
   
   for ONIOM refer to:
   * C. Plett, A. Katbashev, S. Ehlert, S. Grimme, M. Bursch,
     Phys. Chem. Chem. Phys., 2023, 25, 17860-17868. DOI: 10.1039/D3CP02178E
   
   for DIPRO refer to:
   * J. Kohn, N. Gildemeister, S. Grimme, D. Fazzi, A. Hansen,
     J. Chem. Phys., 2023, just accepted.
   
   for PTB refer to:
   * S. Grimme, M. Mueller, A. Hansen, J. Chem. Phys., 2023, 158, 124111.
     DOI: 10.1063/5.0137838
   
   with help from (in alphabetical order)
   P. Atkinson, C. Bannwarth, F. Bohle, G. Brandenburg, E. Caldeweyher
   M. Checinski, S. Dohm, S. Ehlert, S. Ehrlich, I. Gerasimov, C. Hölzer
   A. Katbashev, J. Kohn, J. Koopman, C. Lavigne, S. Lehtola, F. März, M. Müller,
   F. Musil, H. Neugebauer, J. Pisarek, C. Plett, P. Pracht, F. Pultar,
   J. Seibert, P. Shushkov, S. Spicher, M. Stahn, M. Steiner, T. Strunk,
   J. Stückrath, T. Rose, and J. Unsleber
   
 * started run on 2026/05/26 at 02:15:30.225     
   ID    Z sym.   atoms
    1    6 C      1-9
    2    8 O      10, 11, 31, 34, 37, 40, 43, 46
    3    1 H      12-29, 32, 33, 35, 36, 38, 39, 41, 42, 44, 45, 47, 48
    4   48 Cd     30

           -------------------------------------------------
          |                Calculation Setup                |
           -------------------------------------------------

          program call               : /content/xtb_env/bin/xtb input.xyz --gfn 2 --opt tight --alpb water --chrg 2 --uhf 0
          hostname                   : 01035569fb61
          coordinate file            : input.xyz
          omp threads                :                     2


molecular fragmentation (1/2 indicates fragments):
111111111111111111111111111111111111111111222222
# atoms in fragment 1/2:    42     6
 fragment masses (1/2) :      342.71       36.03
CMA distance (Bohr)    :   7.633
constraining FC (au)   :  0.0500

           -------------------------------------------------
          |                 G F N 2 - x T B                 |
           -------------------------------------------------

        Reference                      10.1021/acs.jctc.8b01176
      * Hamiltonian:
        H0-scaling (s, p, d)           1.850000    2.230000    2.230000
        zeta-weighting                 0.500000
      * Dispersion:
        s8                             2.700000
        a1                             0.520000
        a2                             5.000000
        s9                             5.000000
      * Repulsion:
        kExp                           1.500000    1.000000
        rExp                           1.000000
      * Coulomb:
        alpha                          2.000000
        third order                    shell-resolved
        anisotropic                    true
        a3                             3.000000
        a5                             4.000000
        cn-shift                       1.200000
        cn-exp                         4.000000
        max-rad                        5.000000

      * Solvation model:               ALPB
        Solvent                        water
        Parameter file                 internal GFN2-xTB/ALPB
        Dielectric constant                8.0200E+01
        Reference state                gsolv [1 M gas/solution]
        Free energy shift                  1.0808E-03 Eh       6.7819E-01 kcal/mol
        Temperature                        2.9815E+02 K
        Density                            1.0000E+00 kg/L
        Solvent mass                       1.8000E+01 g/mol
        Interaction kernel             P16
        Born radius scaling (c1)           1.4744E+00
        Born radii integrator          GBOBC
        Born offset                        0.0000E+00 a0       0.0000E+00 AA
        H-bond correction              true
        Ion screening                  false
        Surface tension                    1.0000E-05 Eh       1.5569E+01 dyn/cm
        Grid points                               230 per atom

          ...................................................
          :                      SETUP                      :
          :.................................................:
          :  # basis functions                 102          :
          :  # atomic orbitals                 102          :
          :  # shells                           66          :
          :  # electrons                       114          :
          :  max. iterations                   250          :
          :  Hamiltonian                  GFN2-xTB          :
          :  restarted?                      false          :
          :  GBSA solvation                   true          :
          :  PC potential                    false          :
          :  electronic temp.          300.0000000     K    :
          :  accuracy                    1.0000000          :
          :  -> integral cutoff          0.2500000E+02      :
          :  -> integral neglect         0.1000000E-07      :
          :  -> SCF convergence          0.1000000E-05 Eh   :
          :  -> wf. convergence          0.1000000E-03 e    :
          :  Broyden damping             0.4000000          :
          :  net charge                          2          :
          :  unpaired electrons                  0          :
          ...................................................

 iter      E             dE          RMSdq      gap      omega  full diag
   1    -63.1958906 -0.631959E+02  0.657E+00    0.85       0.0  T
   2    -64.0800506 -0.884160E+00  0.644E+00    0.71       1.0  T
   3    -64.7109170 -0.630866E+00  0.475E+00    0.23       1.0  T
   4    -64.9381922 -0.227275E+00  0.318E+00    0.56       1.0  T
   5    -65.1266810 -0.188489E+00  0.255E+00    0.12       1.0  T
   6    -65.2139805 -0.872996E-01  0.116E+00    0.34       1.0  T
   7    -64.8972222  0.316758E+00  0.280E+00    0.43       1.0  T
   8    -65.2623281 -0.365106E+00  0.830E-01    0.27       1.0  T
   9    -65.2713211 -0.899306E-02  0.480E-01    0.25       1.0  T
  10    -65.2752537 -0.393261E-02  0.188E-01    0.25       1.0  T
  11    -65.2765393 -0.128552E-02  0.916E-02    0.20       1.0  T
  12    -65.2765487 -0.949126E-05  0.882E-02    0.22       1.0  T
  13    -65.2767085 -0.159755E-03  0.462E-02    0.23       1.0  T
  14    -65.2768437 -0.135181E-03  0.853E-03    0.22       1.7  T
  15    -65.2768426  0.107773E-05  0.782E-03    0.22       1.8  T
  16    -65.2768432 -0.601427E-06  0.510E-03    0.22       2.8  T
  17    -65.2768444 -0.122456E-05  0.142E-03    0.22      10.2  T
  18    -65.2768445 -0.213612E-07  0.724E-04    0.22      19.9  T
  19    -65.2768445 -0.751864E-08  0.303E-04    0.22      47.7  T

   *** convergence criteria satisfied after 19 iterations ***

         #    Occupation            Energy/Eh            Energy/eV
      -------------------------------------------------------------
         1        2.0000           -0.9290500             -25.2807
       ...           ...                  ...                  ...
        51        2.0000           -0.3523585              -9.5882
        52        2.0000           -0.3280157              -8.9258
        53        2.0000           -0.2967457              -8.0749
        54        2.0000           -0.2666292              -7.2554
        55        2.0000           -0.2522128              -6.8631
        56        2.0000           -0.2442963              -6.6476
        57        1.9697           -0.2343921              -6.3781 (HOMO)
        58        0.0298           -0.2264420              -6.1618 (LUMO)
        59        0.0005           -0.2225279              -6.0553
        60                         -0.1953593              -5.3160
        61                         -0.1450328              -3.9465
        62                         -0.1026030              -2.7920
       ...                                ...                  ...
       102                          4.6275275             125.9214
      -------------------------------------------------------------
                  HL-Gap            0.0079501 Eh            0.2163 eV
             Fermi-level           -0.2304249 Eh           -6.2702 eV

 SCC (total)                   0 d,  0 h,  0 min,  0.302 sec
 SCC setup                      ...        0 min,  0.008 sec (  2.596%)
 Dispersion                     ...        0 min,  0.008 sec (  2.652%)
 classical contributions        ...        0 min,  0.004 sec (  1.207%)
 integral evaluation            ...        0 min,  0.021 sec (  6.976%)
 iterations                     ...        0 min,  0.207 sec ( 68.756%)
 molecular gradient             ...        0 min,  0.052 sec ( 17.174%)
 printout                       ...        0 min,  0.002 sec (  0.629%)

         :::::::::::::::::::::::::::::::::::::::::::::::::::::
         ::                     SUMMARY                     ::
         :::::::::::::::::::::::::::::::::::::::::::::::::::::
         :: total energy             -64.147320810620 Eh    ::
         :: total w/o Gsasa/hb       -64.071035036742 Eh    ::
         :: gradient norm              5.129666923260 Eh/a0 ::
         :: HOMO-LUMO gap              0.216332973004 eV    ::
         ::.................................................::
         :: SCC energy               -65.277068090680 Eh    ::
         :: -> isotropic ES            0.721245618347 Eh    ::
         :: -> anisotropic ES          0.017510952352 Eh    ::
         :: -> anisotropic XC         -0.048412324951 Eh    ::
         :: -> dispersion             -0.028004524670 Eh    ::
         :: -> Gsolv                  -0.516352419197 Eh    ::
         ::    -> Gelec               -0.440066645319 Eh    ::
         ::    -> Gsasa               -0.001253788682 Eh    ::
         ::    -> Ghb                 -0.076112744895 Eh    ::
         ::    -> Gshift               0.001080759698 Eh    ::
         :: repulsion energy           1.129747280060 Eh    ::
         :: add. restraining           0.000000000000 Eh    ::
         :: total charge               2.000000000000 e     ::
         :::::::::::::::::::::::::::::::::::::::::::::::::::::

      ----------------------------------------------------------- 
     |                   =====================                   |
     |                        A N C O P T                        |
     |                   =====================                   |
     |               Approximate Normal Coordinate               |
     |                Rational Function Optimizer                |
      ----------------------------------------------------------- 
      ----------------------------------------------------------- 
     |                   =====================                   |
     |                        A N C O P T                        |
     |                   =====================                   |
     |               Approximate Normal Coordinate               |
     |                Rational Function Optimizer                |
      ----------------------------------------------------------- 

          ...................................................
          :                      SETUP                      :
          :.................................................:
          :   optimization level             tight          :
          :   max. optcycles                   240          :
          :   ANC micro-cycles                  20          :
          :   degrees of freedom               138          :
          :.................................................:
          :   RF solver                   davidson          :
          :   write xtbopt.log                true          :
          :   linear?                        false          :
          :   energy convergence         0.1000000E-05 Eh   :
          :   grad. convergence          0.8000000E-03 Eh/α :
          :   maxmium RF displ.          1.0000000          :
          :   Hlow (freq-cutoff)         0.1000000E-01      :
          :   Hmax (freq-cutoff)         5.0000000          :
          :   S6 in model hess.         20.0000000          :
          ...................................................

generating ANC from exact Hessian ...
Using Lindh-Hessian (1995)
 Shifting diagonal of input Hessian by    1.0144264438125696E-002
 Lowest  eigenvalues of input Hessian
    0.010000    0.010060    0.010081    0.010091    0.000000    0.000000
    0.000000    0.000000    0.000000    0.000000    0.010175    0.010238
    0.010266    0.010280    0.010339    0.010399    0.010470    0.010510
 Highest eigenvalues
    2.087657    2.787102    3.120558    4.663876    5.850411    6.351874


........................................................................
.............................. CYCLE    1 ..............................
........................................................................

 iter      E             dE          RMSdq      gap      omega  full diag
   1    -65.2768445 -0.652768E+02  0.294E-04    0.22       0.0  T
   2    -65.2768443  0.136354E-06  0.144E-03    0.22      10.0  T
   3    -65.2768445 -0.141190E-06  0.852E-05    0.22     169.4  T
   4    -65.2768445  0.346006E-09  0.102E-04    0.22     141.0  T
     SCC iter.                  ...        0 min,  0.034 sec
     gradient                   ...        0 min,  0.045 sec
 * total energy  :   -64.1473208 Eh     change       -0.2336932E-08 Eh
   gradient norm :     5.1296102 Eh/α   predicted     0.0000000E+00 (-100.00%)
   displ. norm   :     0.6531365 α      lambda       -0.3298106E+01
   maximum displ.:     0.5404940 α      in ANC's #138, #137, #135, ...

........................................................................
.............................. CYCLE    2 ..............................
........................................................................

 iter      E             dE          RMSdq      gap      omega  full diag
   1    -65.8823448 -0.658823E+02  0.188E+00    0.39       0.0  T
   2    -65.7281131  0.154232E+00  0.245E+00    0.40       1.0  T
   3    -65.9417328 -0.213620E+00  0.111E+00    0.43       1.0  T
   4    -65.9683911 -0.266583E-01  0.892E-01    0.51       1.0  T
   5    -65.9784035 -0.100124E-01  0.590E-01    0.49       1.0  T
   6    -65.9814859 -0.308242E-02  0.379E-01    0.46       1.0  T
   7    -65.9852372 -0.375130E-02  0.172E-01    0.45       1.0  T
   8    -65.9865758 -0.133853E-02  0.351E-02    0.46       1.0  T
   9    -65.9865905 -0.147801E-04  0.203E-02    0.46       1.0  T
  10    -65.9866006 -0.101125E-04  0.767E-03    0.46       1.9  T
  11    -65.9866014 -0.750667E-06  0.341E-03    0.46       4.2  T
  12    -65.9866016 -0.157073E-06  0.191E-03    0.46       7.6  T
  13    -65.9866017 -0.140679E-06  0.847E-04    0.46      17.0  T
  14    -65.9866017 -0.200391E-07  0.385E-04    0.46      37.5  T
     SCC iter.                  ...        0 min,  0.251 sec
     gradient                   ...        0 min,  0.083 sec
 * total energy  :   -65.3687115 Eh     change       -0.1221391E+01 Eh
   gradient norm :     0.8534131 Eh/α   predicted    -0.2352533E+01 (  92.61%)
   displ. norm   :     0.7079543 α      lambda       -0.4167002E+00
   maximum displ.:     0.3330399 α      in ANC's #53, #56, #55, ...

........................................................................
.............................. CYCLE    3 ..............................
........................................................................

 iter      E             dE          RMSdq      gap      omega  full diag
   1    -66.2815246 -0.662815E+02  0.841E-01    1.15       0.0  T
   2    -66.1814051  0.100120E+00  0.148E+00    0.94       1.0  T
   3    -66.3004522 -0.119047E+00  0.396E-01    1.16       1.0  T
   4    -66.3032264 -0.277429E-02  0.193E-01    1.11       1.0  T
   5    -66.3037716 -0.545124E-03  0.688E-02    1.12       1.0  T
   6    -66.3038759 -0.104381E-03  0.266E-02    1.13       1.0  T
   7    -66.3038878 -0.118634E-04  0.153E-02    1.13       1.0  T
   8    -66.3038901 -0.229791E-05  0.101E-02    1.13       1.4  T
   9    -66.3038919 -0.184172E-05  0.466E-03    1.13       3.1  T
  10    -66.3038925 -0.522841E-06  0.222E-03    1.12       6.5  T
  11    -66.3038926 -0.146543E-06  0.779E-04    1.12      18.5  T
  12    -66.3038926 -0.111772E-07  0.304E-04    1.12      47.5  T
     SCC iter.                  ...        0 min,  0.098 sec
     gradient                   ...        0 min,  0.092 sec
 * total energy  :   -65.7168618 Eh     change       -0.3481503E+00 Eh
   gradient norm :     0.5071901 Eh/α   predicted    -0.3127828E+00 ( -10.16%)
   displ. norm   :     0.8011648 α      lambda       -0.3279932E+00
   maximum displ.:     0.3605441 α      in ANC's #53, #56, #55, ...

........................................................................
.............................. CYCLE    4 ..............................
........................................................................

 iter      E             dE          RMSdq      gap      omega  full diag
   1    -66.5701326 -0.665701E+02  0.744E-01    1.52       0.0  T
   2    -66.5742282 -0.409559E-02  0.497E-01    1.32       1.0  T
   3    -66.5761776 -0.194948E-02  0.293E-01    1.58       1.0  T
   4    -66.5788600 -0.268239E-02  0.109E-01    1.46       1.0  T
   5    -66.5790165 -0.156492E-03  0.337E-02    1.47       1.0  T
   6    -66.5790421 -0.255857E-04  0.146E-02    1.46       1.0  T
   7    -66.5790443 -0.214420E-05  0.852E-03    1.46       1.7  T
   8    -66.5790446 -0.300478E-06  0.402E-03    1.46       3.6  T
   9    -66.5790448 -0.282947E-06  0.176E-03    1.46       8.2  T
  10    -66.5790449 -0.340326E-07  0.790E-04    1.46      18.3  T
  11    -66.5790449 -0.986945E-08  0.239E-04    1.46      60.4  T
     SCC iter.                  ...        0 min,  0.168 sec
     gradient                   ...        0 min,  0.079 sec
 * total energy  :   -66.0002834 Eh     change       -0.2834216E+00 Eh
   gradient norm :     0.3348562 Eh/α   predicted    -0.2692603E+00 (  -5.00%)
   displ. norm   :     0.8588320 α      lambda       -0.2572086E+00
   maximum displ.:     0.4061093 α      in ANC's #53, #56, #91, ...

........................................................................
.............................. CYCLE    5 ..............................
........................................................................

 iter      E             dE          RMSdq      gap      omega  full diag
   1    -66.7773587 -0.667774E+02  0.768E-01    1.49       0.0  T
   2    -66.7839984 -0.663970E-02  0.376E-01    1.85       1.0  T
   3    -66.7844768 -0.478352E-03  0.224E-01    1.91       1.0  T
   4    -66.7848217 -0.344931E-03  0.605E-02    1.93       1.0  T
   5    -66.7848938 -0.720998E-04  0.304E-02    1.92       1.0  T
   6    -66.7849127 -0.189009E-04  0.161E-02    1.92       1.0  T
   7    -66.7849126  0.741411E-07  0.736E-03    1.92       2.0  T
   8    -66.7849133 -0.649178E-06  0.214E-03    1.92       6.8  T
   9    -66.7849134 -0.616614E-07  0.947E-04    1.92      15.2  T
  10    -66.7849134 -0.714245E-08  0.404E-04    1.92      35.7  T
     SCC iter.                  ...        0 min,  0.167 sec
     gradient                   ...        0 min,  0.058 sec
 * total energy  :   -66.2310930 Eh     change       -0.2308096E+00 Eh
   gradient norm :     0.2740393 Eh/α   predicted    -0.2234620E+00 (  -3.18%)
   displ. norm   :     0.8791352 α      lambda       -0.2162787E+00
   maximum displ.:     0.4060880 α      in ANC's #53, #56, #91, ...

........................................................................
.............................. CYCLE    6 ..............................
........................................................................

 iter      E             dE          RMSdq      gap      omega  full diag
   1    -66.9350029 -0.669350E+02  0.806E-01    0.71       0.0  T
   2    -66.9415372 -0.653432E-02  0.475E-01    1.15       1.0  T
   3    -66.9458801 -0.434292E-02  0.277E-01    1.11       1.0  T
   4    -66.9466115 -0.731435E-03  0.798E-02    1.12       1.0  T
   5    -66.9466904 -0.788404E-04  0.452E-02    1.14       1.0  T
   6    -66.9467127 -0.223393E-04  0.262E-02    1.14       1.0  T
   7    -66.9467135 -0.778772E-06  0.749E-03    1.14       1.9  T
   8    -66.9467140 -0.531862E-06  0.254E-03    1.14       5.7  T
   9    -66.9467141 -0.643603E-07  0.116E-03    1.14      12.4  T
  10    -66.9467141 -0.962011E-08  0.569E-04    1.14      25.3  T
  11    -66.9467141 -0.201287E-08  0.295E-04    1.14      48.9  T
     SCC iter.                  ...        0 min,  0.193 sec
     gradient                   ...        0 min,  0.058 sec
 * total energy  :   -66.4209674 Eh     change       -0.1898744E+00 Eh
   gradient norm :     0.2187897 Eh/α   predicted    -0.1917179E+00 (   0.97%)
   displ. norm   :     0.8494958 α      lambda       -0.1629601E+00
   maximum displ.:     0.3921318 α      in ANC's #53, #56, #43, ...

........................................................................
.............................. CYCLE    7 ..............................
........................................................................

 iter      E             dE          RMSdq      gap      omega  full diag
   1    -67.0698347 -0.670698E+02  0.592E-01    0.65       0.0  T
   2    -67.0711313 -0.129660E-02  0.375E-01    0.88       1.0  T
   3    -67.0726504 -0.151907E-02  0.253E-01    0.83       1.0  T
   4    -67.0737578 -0.110745E-02  0.531E-02    0.85       1.0  T
   5    -67.0737821 -0.242426E-04  0.318E-02    0.86       1.0  T
   6    -67.0737922 -0.101250E-04  0.184E-02    0.86       1.0  T
   7    -67.0737929 -0.697306E-06  0.523E-03    0.86       2.8  T
   8    -67.0737930 -0.118120E-06  0.166E-03    0.86       8.7  T
   9    -67.0737930 -0.302061E-07  0.706E-04    0.86      20.5  T
  10    -67.0737930 -0.419861E-08  0.345E-04    0.86      41.9  T
     SCC iter.                  ...        0 min,  0.101 sec
     gradient                   ...        0 min,  0.049 sec
 * total energy  :   -66.5609257 Eh     change       -0.1399583E+00 Eh
   gradient norm :     0.1746534 Eh/α   predicted    -0.1402796E+00 (   0.23%)
   displ. norm   :     0.8013176 α      lambda       -0.1165612E+00
   maximum displ.:     0.3186800 α      in ANC's #53, #56, #43, ...

........................................................................
.............................. CYCLE    8 ..............................
........................................................................

 iter      E             dE          RMSdq      gap      omega  full diag
   1    -67.1704819 -0.671705E+02  0.534E-01    0.67       0.0  T
   2    -67.1706802 -0.198282E-03  0.344E-01    0.79       1.0  T
   3    -67.1704868  0.193453E-03  0.262E-01    0.74       1.0  T
   4    -67.1722593 -0.177252E-02  0.319E-02    0.77       1.0  T
   5    -67.1722643 -0.499876E-05  0.184E-02    0.77       1.0  T
   6    -67.1722675 -0.320557E-05  0.107E-02    0.77       1.3  T
   7    -67.1722679 -0.418600E-06  0.325E-03    0.78       4.4  T
   8    -67.1722679 -0.326360E-07  0.103E-03    0.78      14.0  T
   9    -67.1722680 -0.113869E-07  0.414E-04    0.77      34.8  T
  10    -67.1722680 -0.148319E-08  0.229E-04    0.77      63.0  T
     SCC iter.                  ...        0 min,  0.080 sec
     gradient                   ...        0 min,  0.044 sec
 * total energy  :   -66.6592673 Eh     change       -0.9834165E-01 Eh
   gradient norm :     0.1458964 Eh/α   predicted    -0.9570315E-01 (  -2.68%)
   displ. norm   :     0.7763241 α      lambda       -0.8196679E-01
   maximum displ.:     0.2395184 α      in ANC's #53, #43, #56, ...

........................................................................
.............................. CYCLE    9 ..............................
........................................................................

 iter      E             dE          RMSdq      gap      omega  full diag
   1    -67.2451825 -0.672452E+02  0.483E-01    0.80       0.0  T
   2    -67.2451242  0.583391E-04  0.319E-01    0.86       1.0  T
   3    -67.2446241  0.500048E-03  0.242E-01    0.81       1.0  T
   4    -67.2462582 -0.163412E-02  0.189E-02    0.85       1.0  T
   5    -67.2462607 -0.249877E-05  0.881E-03    0.84       1.6  T
   6    -67.2462620 -0.125782E-05  0.462E-03    0.84       3.1  T
   7    -67.2462621 -0.765608E-07  0.172E-03    0.84       8.4  T
   8    -67.2462621 -0.564256E-07  0.741E-04    0.84      19.5  T
   9    -67.2462621 -0.502182E-08  0.265E-04    0.84      54.4  T
     SCC iter.                  ...        0 min,  0.189 sec
     gradient                   ...        0 min,  0.048 sec
 * total energy  :   -66.7273436 Eh     change       -0.6807623E-01 Eh
   gradient norm :     0.1262596 Eh/α   predicted    -0.6568318E-01 (  -3.52%)
   displ. norm   :     0.7613329 α      lambda       -0.5723332E-01
   maximum displ.:     0.2716919 α      in ANC's #27, #28, #30, ...

........................................................................
.............................. CYCLE   10 ..............................
........................................................................

 iter      E             dE          RMSdq      gap      omega  full diag
   1    -67.2993842 -0.672994E+02  0.401E-01    0.89       0.0  T
   2    -67.2994246 -0.404337E-04  0.261E-01    0.92       1.0  T
   3    -67.2986674  0.757160E-03  0.195E-01    0.88       1.0  T
   4    -67.2999160 -0.124860E-02  0.209E-02    0.91       1.0  T
   5    -67.2999218 -0.577373E-05  0.976E-03    0.91       1.5  T
   6    -67.2999234 -0.162090E-05  0.353E-03    0.91       4.1  T
   7    -67.2999235 -0.496884E-07  0.182E-03    0.91       7.9  T
   8    -67.2999235 -0.337789E-07  0.613E-04    0.91      23.5  T
   9    -67.2999235 -0.402436E-08  0.316E-04    0.91      45.7  T
     SCC iter.                  ...        0 min,  0.147 sec
     gradient                   ...        0 min,  0.080 sec
 * total energy  :   -66.7753336 Eh     change       -0.4799002E-01 Eh
   gradient norm :     0.1115780 Eh/α   predicted    -0.4520368E-01 (  -5.81%)
   displ. norm   :     0.7879166 α      lambda       -0.4513262E-01
   maximum displ.:     0.3249610 α      in ANC's #28, #27, #30, ...

........................................................................
.............................. CYCLE   11 ..............................
........................................................................

 iter      E             dE          RMSdq      gap      omega  full diag
   1    -67.3494361 -0.673494E+02  0.322E-01    1.03       0.0  T
   2    -67.3495806 -0.144512E-03  0.186E-01    0.99       1.0  T
   3    -67.3495254  0.551378E-04  0.527E-02    0.99       1.0  T
   4    -67.3496053 -0.798769E-04  0.273E-02    0.99       1.0  T
   5    -67.3496110 -0.566995E-05  0.154E-02    0.99       1.0  T
   6    -67.3496158 -0.483599E-05  0.609E-03    0.99       2.4  T
   7    -67.3496161 -0.238078E-06  0.240E-03    0.99       6.0  T
   8    -67.3496161 -0.551405E-07  0.683E-04    0.99      21.1  T
   9    -67.3496161 -0.412251E-08  0.376E-04    0.99      38.4  T
     SCC iter.                  ...        0 min,  0.118 sec
     gradient                   ...        0 min,  0.059 sec
 * total energy  :   -66.8147839 Eh     change       -0.3945028E-01 Eh
   gradient norm :     0.1051982 Eh/α   predicted    -0.3657577E-01 (  -7.29%)
   displ. norm   :     0.8030430 α      lambda       -0.4370399E-01
   maximum displ.:     0.3554856 α      in ANC's #28, #27, #30, ...

........................................................................
.............................. CYCLE   12 ..............................
........................................................................

 iter      E             dE          RMSdq      gap      omega  full diag
   1    -67.3966851 -0.673967E+02  0.346E-01    0.99       0.0  T
   2    -67.3968681 -0.183034E-03  0.186E-01    0.94       1.0  T
   3    -67.3966455  0.222674E-03  0.150E-01    0.98       1.0  T
   4    -67.3970654 -0.419886E-03  0.338E-02    0.95       1.0  T
   5    -67.3970660 -0.658446E-06  0.200E-02    0.95       1.0  T
   6    -67.3970704 -0.440231E-05  0.641E-03    0.95       2.3  T
   7    -67.3970706 -0.214079E-06  0.279E-03    0.95       5.2  T
   8    -67.3970707 -0.872345E-07  0.988E-04    0.95      14.6  T
   9    -67.3970707 -0.828345E-08  0.467E-04    0.95      30.9  T
     SCC iter.                  ...        0 min,  0.074 sec
     gradient                   ...        0 min,  0.050 sec
 * total energy  :   -66.8519670 Eh     change       -0.3718317E-01 Eh
   gradient norm :     0.1008806 Eh/α   predicted    -0.3594388E-01 (  -3.33%)
   displ. norm   :     0.8391305 α      lambda       -0.4609516E-01
   maximum displ.:     0.3567951 α      in ANC's #30, #27, #28, ...

........................................................................
.............................. CYCLE   13 ..............................
........................................................................

 iter      E             dE          RMSdq      gap      omega  full diag
   1    -67.4458755 -0.674459E+02  0.359E-01    1.05       0.0  T
   2    -67.4461336 -0.258039E-03  0.202E-01    1.01       1.0  T
   3    -67.4459861  0.147451E-03  0.131E-01    1.02       1.0  T
   4    -67.4462629 -0.276753E-03  0.430E-02    0.99       1.0  T
   5    -67.4462660 -0.308107E-05  0.227E-02    0.99       1.0  T
   6    -67.4462678 -0.178430E-05  0.703E-03    0.99       2.1  T
   7    -67.4462683 -0.519043E-06  0.284E-03    0.99       5.1  T
   8    -67.4462684 -0.902544E-07  0.143E-03    0.99      10.1  T
   9    -67.4462684 -0.228712E-07  0.701E-04    0.99      20.6  T
  10    -67.4462684 -0.767648E-08  0.227E-04    0.99      63.6  T
     SCC iter.                  ...        0 min,  0.215 sec
     gradient                   ...        0 min,  0.088 sec
 * total energy  :   -66.8900373 Eh     change       -0.3807023E-01 Eh
   gradient norm :     0.1106636 Eh/α   predicted    -0.3927630E-01 (   3.17%)
   displ. norm   :     0.7972575 α      lambda       -0.4237982E-01
   maximum displ.:     0.3401041 α      in ANC's #28, #27, #30, ...

........................................................................
.............................. CYCLE   14 ..............................
........................................................................

 iter      E             dE          RMSdq      gap      omega  full diag
   1    -67.5080264 -0.675080E+02  0.392E-01    1.27       0.0  T
   2    -67.5083514 -0.324984E-03  0.225E-01    1.26       1.0  T
   3    -67.5083310  0.204426E-04  0.938E-02    1.27       1.0  T
   4    -67.5084274 -0.964500E-04  0.428E-02    1.25       1.0  T
   5    -67.5084344 -0.701560E-05  0.221E-02    1.25       1.0  T
   6    -67.5084361 -0.163667E-05  0.711E-03    1.25       2.0  T
   7    -67.5084366 -0.529600E-06  0.247E-03    1.25       5.8  T
   8    -67.5084366 -0.593209E-07  0.149E-03    1.25       9.7  T
   9    -67.5084367 -0.372610E-07  0.455E-04    1.25      31.7  T
  10    -67.5084367 -0.369062E-08  0.189E-04    1.25      76.5  T
     SCC iter.                  ...        0 min,  0.131 sec
     gradient                   ...        0 min,  0.087 sec
 * total energy  :   -66.9218515 Eh     change       -0.3181423E-01 Eh
   gradient norm :     0.1299255 Eh/α   predicted    -0.3465863E-01 (   8.94%)
   displ. norm   :     0.7863413 α      lambda       -0.3354225E-01
   maximum displ.:     0.3918534 α      in ANC's #30, #27, #28, ...

........................................................................
.............................. CYCLE   15 ..............................
........................................................................

 iter      E             dE          RMSdq      gap      omega  full diag
   1    -67.5160107 -0.675160E+02  0.236E-01    1.30       0.0  T
   2    -67.5162089 -0.198213E-03  0.137E-01    1.37       1.0  T
   3    -67.5162317 -0.228657E-04  0.392E-02    1.41       1.0  T
   4    -67.5162383 -0.652612E-05  0.183E-02    1.41       1.0  T
   5    -67.5162400 -0.171956E-05  0.116E-02    1.40       1.2  T
   6    -67.5162406 -0.572050E-06  0.291E-03    1.40       5.0  T
   7    -67.5162407 -0.113435E-06  0.146E-03    1.41       9.9  T
   8    -67.5162407 -0.206564E-07  0.856E-04    1.41      16.9  T
   9    -67.5162407 -0.951016E-08  0.421E-04    1.41      34.3  T
     SCC iter.                  ...        0 min,  0.111 sec
     gradient                   ...        0 min,  0.045 sec
 * total energy  :   -66.9479341 Eh     change       -0.2608261E-01 Eh
   gradient norm :     0.1194960 Eh/α   predicted    -0.2714128E-01 (   4.06%)
   displ. norm   :     0.7741599 α      lambda       -0.2999170E-01
   maximum displ.:     0.3606744 α      in ANC's #30, #28, #27, ...

........................................................................
.............................. CYCLE   16 ..............................
........................................................................

 iter      E             dE          RMSdq      gap      omega  full diag
   1    -67.5393680 -0.675394E+02  0.246E-01    1.75       0.0  T
   2    -67.5394731 -0.105071E-03  0.143E-01    1.81       1.0  T
   3    -67.5394811 -0.799819E-05  0.406E-02    1.82       1.0  T
   4    -67.5394935 -0.124068E-04  0.209E-02    1.82       1.0  T
   5    -67.5394948 -0.127114E-05  0.100E-02    1.82       1.4  T
   6    -67.5394952 -0.412761E-06  0.283E-03    1.82       5.1  T
   7    -67.5394953 -0.959597E-07  0.139E-03    1.82      10.4  T
   8    -67.5394953 -0.205668E-07  0.811E-04    1.82      17.8  T
   9    -67.5394953 -0.126073E-07  0.243E-04    1.82      59.3  T
     SCC iter.                  ...        0 min,  0.144 sec
     gradient                   ...        0 min,  0.052 sec
 * total energy  :   -66.9697938 Eh     change       -0.2185967E-01 Eh
   gradient norm :     0.1190928 Eh/α   predicted    -0.2398321E-01 (   9.71%)
   displ. norm   :     0.7533691 α      lambda       -0.2733346E-01
   maximum displ.:     0.3437962 α      in ANC's #28, #30, #27, ...

........................................................................
.............................. CYCLE   17 ..............................
........................................................................

 iter      E             dE          RMSdq      gap      omega  full diag
   1    -67.5568186 -0.675568E+02  0.265E-01    2.19       0.0  T
   2    -67.5570239 -0.205283E-03  0.153E-01    2.22       1.0  T
   3    -67.5570342 -0.103016E-04  0.432E-02    2.25       1.0  T
   4    -67.5570484 -0.142583E-04  0.167E-02    2.25       1.0  T
   5    -67.5570497 -0.125419E-05  0.904E-03    2.25       1.6  T
   6    -67.5570499 -0.192656E-06  0.293E-03    2.24       4.9  T
   7    -67.5570500 -0.752920E-07  0.940E-04    2.25      15.4  T
   8    -67.5570500 -0.854303E-08  0.563E-04    2.25      25.6  T
     SCC iter.                  ...        0 min,  0.066 sec
     gradient                   ...        0 min,  0.085 sec
 * total energy  :   -66.9887338 Eh     change       -0.1894001E-01 Eh
   gradient norm :     0.1114602 Eh/α   predicted    -0.2142350E-01 (  13.11%)
   displ. norm   :     0.7416453 α      lambda       -0.2200540E-01
   maximum displ.:     0.3297642 α      in ANC's #27, #28, #30, ...

........................................................................
.............................. CYCLE   18 ..............................
........................................................................

 iter      E             dE          RMSdq      gap      omega  full diag
   1    -67.5802763 -0.675803E+02  0.212E-01    2.44       0.0  T
   2    -67.5804656 -0.189309E-03  0.120E-01    2.49       1.0  T
   3    -67.5804749 -0.926208E-05  0.405E-02    2.52       1.0  T
   4    -67.5804823 -0.741952E-05  0.124E-02    2.53       1.2  T
   5    -67.5804831 -0.810096E-06  0.605E-03    2.52       2.4  T
   6    -67.5804832 -0.873918E-07  0.258E-03    2.52       5.6  T
   7    -67.5804832 -0.367689E-07  0.728E-04    2.52      19.8  T
   8    -67.5804832 -0.507481E-08  0.426E-04    2.52      33.9  T
     SCC iter.                  ...        0 min,  0.161 sec
     gradient                   ...        0 min,  0.050 sec
 * total energy  :   -67.0042773 Eh     change       -0.1554348E-01 Eh
   gradient norm :     0.1123100 Eh/α   predicted    -0.1705460E-01 (   9.72%)
   displ. norm   :     0.7188883 α      lambda       -0.2370963E-01
   maximum displ.:     0.2909523 α      in ANC's #28, #37, #27, ...

........................................................................
.............................. CYCLE   19 ..............................
........................................................................

 iter      E             dE          RMSdq      gap      omega  full diag
   1    -67.6117369 -0.676117E+02  0.194E-01    3.04       0.0  T
   2    -67.6118039 -0.670205E-04  0.114E-01    3.07       1.0  T
   3    -67.6118099 -0.597540E-05  0.291E-02    3.08       1.0  T
   4    -67.6118129 -0.299855E-05  0.133E-02    3.08       1.1  T
   5    -67.6118131 -0.255650E-06  0.497E-03    3.08       2.9  T
   6    -67.6118132 -0.862295E-07  0.138E-03    3.08      10.5  T
   7    -67.6118132 -0.162241E-07  0.566E-04    3.08      25.5  T
   8    -67.6118133 -0.325119E-08  0.317E-04    3.08      45.5  T
     SCC iter.                  ...        0 min,  0.093 sec
     gradient                   ...        0 min,  0.052 sec
 * total energy  :   -67.0207016 Eh     change       -0.1642432E-01 Eh
   gradient norm :     0.1060222 Eh/α   predicted    -0.1798140E-01 (   9.48%)
   displ. norm   :     0.6574060 α      lambda       -0.2268454E-01
   maximum displ.:     0.2776015 α      in ANC's #27, #28, #37, ...

........................................................................
.............................. CYCLE   20 ..............................
........................................................................

 iter      E             dE          RMSdq      gap      omega  full diag
   1    -67.6332528 -0.676333E+02  0.258E-01    4.20       0.0  T
   2    -67.6333366 -0.838524E-04  0.151E-01    4.18       1.0  T
   3    -67.6333450 -0.840662E-05  0.333E-02    4.17       1.0  T
   4    -67.6333465 -0.148843E-05  0.167E-02    4.17       1.0  T
   5    -67.6333466 -0.559768E-07  0.535E-03    4.17       2.7  T
   6    -67.6333467 -0.165172E-06  0.896E-04    4.17      16.1  T
   7    -67.6333468 -0.553860E-08  0.383E-04    4.17      37.6  T
     SCC iter.                  ...        0 min,  0.115 sec
     gradient                   ...        0 min,  0.059 sec
 * total energy  :   -67.0330006 Eh     change       -0.1229906E-01 Eh
   gradient norm :     0.1042478 Eh/α   predicted    -0.1624425E-01 (  32.08%)
   displ. norm   :     0.5729762 α      lambda       -0.1858933E-01
   maximum displ.:     0.1877306 α      in ANC's #28, #27, #18, ...
 * RMSD in coord.:     1.5394658 α      energy gain  -0.2885680E+01 Eh

generating ANC from exact Hessian ...
Using Lindh-Hessian (1995)
 Shifting diagonal of input Hessian by    1.0303416442839204E-002
 Lowest  eigenvalues of input Hessian
    0.010000    0.010123    0.010168    0.000000    0.000000    0.000000
    0.000000    0.000000    0.000000    0.010472    0.010568    0.010601
    0.010751    0.010830    0.010846    0.010934    0.010958    0.011306
 Highest eigenvalues
    1.409373    1.410531    1.411814    1.430873    1.447012    1.524919


........................................................................
.............................. CYCLE   21 ..............................
........................................................................

 iter      E             dE          RMSdq      gap      omega  full diag
   1    -67.6469737 -0.676470E+02  0.249E-01    4.77       0.0  T
   2    -67.6470758 -0.102088E-03  0.147E-01    4.78       1.0  T
   3    -67.6470785 -0.270556E-05  0.323E-02    4.78       1.0  T
   4    -67.6470846 -0.602661E-05  0.144E-02    4.78       1.0  T
   5    -67.6470846 -0.775958E-07  0.572E-03    4.78       2.5  T
   6    -67.6470847 -0.742724E-07  0.752E-04    4.78      19.2  T
   7    -67.6470847 -0.443552E-08  0.341E-04    4.78      42.4  T
     SCC iter.                  ...        0 min,  0.076 sec
     gradient                   ...        0 min,  0.089 sec
 * total energy  :   -67.0385890 Eh     change       -0.5588408E-02 Eh
   gradient norm :     0.1073516 Eh/α   predicted     0.0000000E+00 (-100.00%)
   displ. norm   :     0.3813682 α      lambda       -0.1957590E-01
   maximum displ.:     0.1657690 α      in ANC's #43, #71, #68, ...

........................................................................
.............................. CYCLE   22 ..............................
........................................................................

 iter      E             dE          RMSdq      gap      omega  full diag
   1    -67.6483234 -0.676483E+02  0.206E-01    4.86       0.0  T
   2    -67.6483897 -0.663932E-04  0.125E-01    4.88       1.0  T
   3    -67.6484071 -0.173958E-04  0.257E-02    4.89       1.0  T
   4    -67.6484104 -0.327963E-05  0.131E-02    4.89       1.1  T
   5    -67.6484114 -0.963607E-06  0.684E-03    4.89       2.1  T
   6    -67.6484119 -0.476854E-06  0.224E-03    4.89       6.5  T
   7    -67.6484119 -0.777267E-07  0.110E-03    4.89      13.2  T
   8    -67.6484120 -0.205200E-07  0.434E-04    4.89      33.3  T
   9    -67.6484120 -0.282078E-08  0.117E-04    4.89     123.6  T
     SCC iter.                  ...        0 min,  0.151 sec
     gradient                   ...        0 min,  0.079 sec
 * total energy  :   -67.0519127 Eh     change       -0.1332369E-01 Eh
   gradient norm :     0.0474379 Eh/α   predicted    -0.1121404E-01 ( -15.83%)
   displ. norm   :     0.4698466 α      lambda       -0.8190370E-02
   maximum displ.:     0.1832093 α      in ANC's #10, #43, #21, ...

........................................................................
.............................. CYCLE   23 ..............................
........................................................................

 iter      E             dE          RMSdq      gap      omega  full diag
   1    -67.6485128 -0.676485E+02  0.151E-01    4.94       0.0  T
   2    -67.6485718 -0.589862E-04  0.924E-02    4.96       1.0  T
   3    -67.6485813 -0.947710E-05  0.253E-02    4.98       1.0  T
   4    -67.6485830 -0.178658E-05  0.115E-02    4.98       1.3  T
   5    -67.6485834 -0.311767E-06  0.493E-03    4.98       2.9  T
   6    -67.6485835 -0.131917E-06  0.138E-03    4.98      10.4  T
   7    -67.6485835 -0.221135E-07  0.827E-04    4.98      17.5  T
   8    -67.6485835 -0.107476E-07  0.336E-04    4.98      43.0  T
     SCC iter.                  ...        0 min,  0.456 sec
     gradient                   ...        0 min,  0.127 sec
 * total energy  :   -67.0578838 Eh     change       -0.5971058E-02 Eh
   gradient norm :     0.0244723 Eh/α   predicted    -0.4999227E-02 ( -16.28%)
   displ. norm   :     0.5638909 α      lambda       -0.5275680E-02
   maximum displ.:     0.2531703 α      in ANC's #10, #21, #43, ...

........................................................................
.............................. CYCLE   24 ..............................
........................................................................

 iter      E             dE          RMSdq      gap      omega  full diag
   1    -67.6507058 -0.676507E+02  0.147E-01    5.04       0.0  T
   2    -67.6507938 -0.879915E-04  0.901E-02    5.07       1.0  T
   3    -67.6508050 -0.111566E-04  0.282E-02    5.10       1.0  T
   4    -67.6508068 -0.181599E-05  0.970E-03    5.09       1.5  T
   5    -67.6508070 -0.197503E-06  0.458E-03    5.09       3.1  T
   6    -67.6508070 -0.630648E-07  0.962E-04    5.09      15.0  T
   7    -67.6508070 -0.815997E-08  0.570E-04    5.09      25.3  T
     SCC iter.                  ...        0 min,  0.655 sec
     gradient                   ...        0 min,  0.140 sec
 * total energy  :   -67.0623216 Eh     change       -0.4437829E-02 Eh
   gradient norm :     0.0309143 Eh/α   predicted    -0.3476626E-02 ( -21.66%)
   displ. norm   :     0.6982005 α      lambda       -0.6172150E-02
   maximum displ.:     0.3222285 α      in ANC's #10, #21, #43, ...

........................................................................
.............................. CYCLE   25 ..............................
........................................................................

 iter      E             dE          RMSdq      gap      omega  full diag
   1    -67.6559013 -0.676559E+02  0.201E-01    5.20       0.0  T
   2    -67.6562547 -0.353397E-03  0.117E-01    5.25       1.0  T
   3    -67.6562913 -0.366174E-04  0.519E-02    5.29       1.0  T
   4    -67.6562941 -0.273756E-05  0.119E-02    5.29       1.2  T
   5    -67.6562943 -0.263794E-06  0.547E-03    5.29       2.6  T
   6    -67.6562944 -0.809309E-07  0.119E-03    5.29      12.2  T
   7    -67.6562944 -0.797242E-08  0.484E-04    5.29      29.8  T
   8    -67.6562944 -0.120654E-08  0.208E-04    5.29      69.3  T
     SCC iter.                  ...        0 min,  0.674 sec
     gradient                   ...        0 min,  0.092 sec
 * total energy  :   -67.0679148 Eh     change       -0.5593211E-02 Eh
   gradient norm :     0.0394139 Eh/α   predicted    -0.4590517E-02 ( -17.93%)
   displ. norm   :     0.7718883 α      lambda       -0.8521272E-02
   maximum displ.:     0.3348190 α      in ANC's #10, #43, #21, ...

........................................................................
.............................. CYCLE   26 ..............................
........................................................................

 iter      E             dE          RMSdq      gap      omega  full diag
   1    -67.6689455 -0.676689E+02  0.298E-01    5.38       0.0  T
   2    -67.6703185 -0.137300E-02  0.159E-01    5.29       1.0  T
   3    -67.6704545 -0.135951E-03  0.892E-02    5.25       1.0  T
   4    -67.6704648 -0.102891E-04  0.187E-02    5.23       1.0  T
   5    -67.6704658 -0.101929E-05  0.866E-03    5.23       1.7  T
   6    -67.6704660 -0.164627E-06  0.252E-03    5.24       5.7  T
   7    -67.6704660 -0.374102E-07  0.904E-04    5.24      16.0  T
   8    -67.6704660 -0.721212E-08  0.434E-04    5.23      33.3  T
     SCC iter.                  ...        0 min,  0.619 sec
     gradient                   ...        0 min,  0.102 sec
 * total energy  :   -67.0758438 Eh     change       -0.7928987E-02 Eh
   gradient norm :     0.0516425 Eh/α   predicted    -0.6799175E-02 ( -14.25%)
   displ. norm   :     0.7272222 α      lambda       -0.1144511E-01
   maximum displ.:     0.2699232 α      in ANC's #43, #10, #40, ...

........................................................................
.............................. CYCLE   27 ..............................
........................................................................

 iter      E             dE          RMSdq      gap      omega  full diag
   1    -67.6998943 -0.676999E+02  0.333E-01    5.23       0.0  T
   2    -67.7013477 -0.145336E-02  0.188E-01    5.10       1.0  T
   3    -67.7015339 -0.186225E-03  0.103E-01    5.03       1.0  T
   4    -67.7015539 -0.199436E-04  0.250E-02    5.01       1.0  T
   5    -67.7015566 -0.269632E-05  0.113E-02    5.01       1.3  T
   6    -67.7015570 -0.460513E-06  0.417E-03    5.01       3.5  T
   7    -67.7015572 -0.115317E-06  0.142E-03    5.01      10.2  T
   8    -67.7015572 -0.188480E-07  0.829E-04    5.01      17.4  T
   9    -67.7015572 -0.961863E-08  0.250E-04    5.01      57.7  T
     SCC iter.                  ...        0 min,  0.826 sec
     gradient                   ...        0 min,  0.081 sec
 * total energy  :   -67.0785742 Eh     change       -0.2730418E-02 Eh
   gradient norm :     0.0935024 Eh/α   predicted    -0.8748973E-02 ( 220.43%)
   displ. norm   :     0.2494598 α      lambda       -0.1904177E-01
   maximum displ.:     0.1339894 α      in ANC's #75, #74, #60, ...

........................................................................
.............................. CYCLE   28 ..............................
........................................................................

 iter      E             dE          RMSdq      gap      omega  full diag
   1    -67.6923416 -0.676923E+02  0.204E-01    5.19       0.0  T
   2    -67.6925610 -0.219420E-03  0.119E-01    5.24       1.0  T
   3    -67.6925953 -0.342909E-04  0.433E-02    5.28       1.0  T
   4    -67.6925991 -0.379025E-05  0.135E-02    5.28       1.1  T
   5    -67.6925993 -0.183465E-06  0.575E-03    5.28       2.5  T
   6    -67.6925994 -0.119623E-06  0.110E-03    5.28      13.1  T
   7    -67.6925994 -0.524032E-08  0.521E-04    5.28      27.7  T
   8    -67.6925994 -0.588784E-09  0.222E-04    5.28      65.1  T
     SCC iter.                  ...        0 min,  0.230 sec
     gradient                   ...        0 min,  0.080 sec
 * total energy  :   -67.0837790 Eh     change       -0.5204748E-02 Eh
   gradient norm :     0.0574537 Eh/α   predicted    -0.1011339E-01 (  94.31%)
   displ. norm   :     0.4159247 α      lambda       -0.7478766E-02
   maximum displ.:     0.1472538 α      in ANC's #10, #6, #17, ...

........................................................................
.............................. CYCLE   29 ..............................
........................................................................

 iter      E             dE          RMSdq      gap      omega  full diag
   1    -67.6792080 -0.676792E+02  0.132E-01    5.28       0.0  T
   2    -67.6792336 -0.255794E-04  0.786E-02    5.28       1.0  T
   3    -67.6792412 -0.759231E-05  0.146E-02    5.27       1.0  T
   4    -67.6792425 -0.132076E-05  0.710E-03    5.27       2.0  T
   5    -67.6792428 -0.307741E-06  0.352E-03    5.27       4.1  T
   6    -67.6792429 -0.104312E-06  0.141E-03    5.27      10.2  T
   7    -67.6792430 -0.220944E-07  0.667E-04    5.27      21.6  T
   8    -67.6792430 -0.477718E-08  0.282E-04    5.27      51.1  T
     SCC iter.                  ...        0 min,  0.198 sec
     gradient                   ...        0 min,  0.120 sec
 * total energy  :   -67.0871380 Eh     change       -0.3358957E-02 Eh
   gradient norm :     0.0482773 Eh/α   predicted    -0.4386272E-02 (  30.58%)
   displ. norm   :     0.3329988 α      lambda       -0.7943128E-02
   maximum displ.:     0.1050462 α      in ANC's #29, #6, #46, ...

........................................................................
.............................. CYCLE   30 ..............................
........................................................................

 iter      E             dE          RMSdq      gap      omega  full diag
   1    -67.7021642 -0.677022E+02  0.173E-01    5.46       0.0  T
   2    -67.7022823 -0.118060E-03  0.998E-02    5.43       1.0  T
   3    -67.7022994 -0.171111E-04  0.321E-02    5.42       1.0  T
   4    -67.7023024 -0.299622E-05  0.117E-02    5.41       1.2  T
   5    -67.7023031 -0.639205E-06  0.517E-03    5.42       2.8  T
   6    -67.7023031 -0.619984E-07  0.191E-03    5.42       7.6  T
   7    -67.7023031 -0.122446E-07  0.569E-04    5.42      25.4  T
   8    -67.7023031 -0.108609E-08  0.227E-04    5.42      63.6  T
     SCC iter.                  ...        0 min,  0.343 sec
     gradient                   ...        0 min,  0.067 sec
 * total energy  :   -67.0913288 Eh     change       -0.4190826E-02 Eh
   gradient norm :     0.0462261 Eh/α   predicted    -0.4411978E-02 (   5.28%)
   displ. norm   :     0.5495302 α      lambda       -0.9685518E-02
   maximum displ.:     0.2380375 α      in ANC's #29, #17, #6, ...

........................................................................
.............................. CYCLE   31 ..............................
........................................................................

 iter      E             dE          RMSdq      gap      omega  full diag
   1    -67.7140931 -0.677141E+02  0.266E-01    5.61       0.0  T
   2    -67.7142719 -0.178804E-03  0.159E-01    5.59       1.0  T
   3    -67.7142998 -0.279922E-04  0.394E-02    5.57       1.0  T
   4    -67.7143062 -0.634304E-05  0.140E-02    5.57       1.0  T
   5    -67.7143074 -0.116655E-05  0.749E-03    5.57       1.9  T
   6    -67.7143076 -0.282405E-06  0.205E-03    5.57       7.0  T
   7    -67.7143077 -0.466551E-07  0.104E-03    5.57      13.9  T
   8    -67.7143077 -0.125467E-07  0.581E-04    5.57      24.9  T
   9    -67.7143077 -0.520801E-08  0.166E-04    5.57      87.0  T
     SCC iter.                  ...        0 min,  0.218 sec
     gradient                   ...        0 min,  0.090 sec
 * total energy  :   -67.0912119 Eh     change        0.1169235E-03 Eh
   gradient norm :     0.0842768 Eh/α   predicted    -0.6305198E-02 (*******%)
   displ. norm   :     0.3056720 α      lambda       -0.1185499E-01
   maximum displ.:     0.1681931 α      in ANC's #29, #43, #11, ...

........................................................................
.............................. CYCLE   32 ..............................
........................................................................

 iter      E             dE          RMSdq      gap      omega  full diag
   1    -67.7036967 -0.677037E+02  0.192E-01    5.49       0.0  T
   2    -67.7037548 -0.581053E-04  0.113E-01    5.50       1.0  T
   3    -67.7037624 -0.762330E-05  0.220E-02    5.51       1.0  T
   4    -67.7037651 -0.264746E-05  0.998E-03    5.51       1.4  T
   5    -67.7037653 -0.213639E-06  0.492E-03    5.51       2.9  T
   6    -67.7037653 -0.317067E-07  0.142E-03    5.51      10.2  T
   7    -67.7037653 -0.801089E-08  0.417E-04    5.51      34.6  T
   8    -67.7037653 -0.456012E-09  0.214E-04    5.51      67.6  T
     SCC iter.                  ...        0 min,  0.097 sec
     gradient                   ...        0 min,  0.049 sec
 * total energy  :   -67.0962664 Eh     change       -0.5054546E-02 Eh
   gradient norm :     0.0305721 Eh/α   predicted    -0.6481336E-02 (  28.23%)
   displ. norm   :     0.3196525 α      lambda       -0.3605471E-02
   maximum displ.:     0.1755916 α      in ANC's #31, #6, #4, ...

........................................................................
.............................. CYCLE   33 ..............................
........................................................................

 iter      E             dE          RMSdq      gap      omega  full diag
   1    -67.7034267 -0.677034E+02  0.184E-01    5.45       0.0  T
   2    -67.7034490 -0.223069E-04  0.110E-01    5.46       1.0  T
   3    -67.7034570 -0.800186E-05  0.147E-02    5.47       1.0  T
   4    -67.7034578 -0.809239E-06  0.816E-03    5.47       1.8  T
   5    -67.7034580 -0.149575E-06  0.370E-03    5.47       3.9  T
   6    -67.7034580 -0.581342E-07  0.903E-04    5.47      16.0  T
   7    -67.7034580 -0.617059E-08  0.493E-04    5.47      29.3  T
     SCC iter.                  ...        0 min,  0.073 sec
     gradient                   ...        0 min,  0.087 sec
 * total energy  :   -67.0959475 Eh     change        0.3188954E-03 Eh
   gradient norm :     0.0557542 Eh/α   predicted    -0.1986947E-02 (-723.07%)
   displ. norm   :     0.2589783 α      lambda       -0.3576800E-02
   maximum displ.:     0.1141871 α      in ANC's #31, #6, #18, ...

........................................................................
.............................. CYCLE   34 ..............................
........................................................................

 iter      E             dE          RMSdq      gap      omega  full diag
   1    -67.7060505 -0.677061E+02  0.112E-01    5.50       0.0  T
   2    -67.7060650 -0.144847E-04  0.658E-02    5.49       1.0  T
   3    -67.7060681 -0.308249E-05  0.976E-03    5.49       1.5  T
   4    -67.7060687 -0.667414E-06  0.492E-03    5.49       2.9  T
   5    -67.7060688 -0.832173E-07  0.257E-03    5.49       5.6  T
   6    -67.7060688 -0.106019E-07  0.715E-04    5.49      20.2  T
   7    -67.7060688 -0.226835E-08  0.211E-04    5.49      68.4  T
     SCC iter.                  ...        0 min,  0.122 sec
     gradient                   ...        0 min,  0.050 sec
 * total energy  :   -67.0983915 Eh     change       -0.2444025E-02 Eh
   gradient norm :     0.0204493 Eh/α   predicted    -0.1908349E-02 ( -21.92%)
   displ. norm   :     0.4132015 α      lambda       -0.2640120E-02
   maximum displ.:     0.1263210 α      in ANC's #6, #4, #10, ...

........................................................................
.............................. CYCLE   35 ..............................
........................................................................

 iter      E             dE          RMSdq      gap      omega  full diag
   1    -67.7049169 -0.677049E+02  0.116E-01    5.54       0.0  T
   2    -67.7049419 -0.250357E-04  0.695E-02    5.53       1.0  T
   3    -67.7049476 -0.565238E-05  0.128E-02    5.52       1.1  T
   4    -67.7049485 -0.865668E-06  0.521E-03    5.52       2.8  T
   5    -67.7049486 -0.143603E-06  0.300E-03    5.52       4.8  T
   6    -67.7049487 -0.561293E-07  0.914E-04    5.52      15.8  T
   7    -67.7049487 -0.914848E-08  0.425E-04    5.52      34.0  T
     SCC iter.                  ...        0 min,  0.058 sec
     gradient                   ...        0 min,  0.085 sec
 * total energy  :   -67.0990485 Eh     change       -0.6569381E-03 Eh
   gradient norm :     0.0360509 Eh/α   predicted    -0.1545449E-02 ( 135.25%)
   displ. norm   :     0.2292935 α      lambda       -0.2170482E-02
   maximum displ.:     0.0892372 α      in ANC's #4, #6, #23, ...

........................................................................
.............................. CYCLE   36 ..............................
........................................................................

 iter      E             dE          RMSdq      gap      omega  full diag
   1    -67.7059704 -0.677060E+02  0.950E-02    5.56       0.0  T
   2    -67.7059771 -0.671216E-05  0.588E-02    5.56       1.0  T
   3    -67.7059793 -0.221079E-05  0.734E-03    5.56       2.0  T
   4    -67.7059796 -0.268557E-06  0.328E-03    5.56       4.4  T
   5    -67.7059796 -0.465339E-07  0.148E-03    5.56       9.7  T
   6    -67.7059796 -0.136362E-07  0.471E-04    5.56      30.6  T
   7    -67.7059796 -0.251138E-08  0.261E-04    5.56      55.3  T
     SCC iter.                  ...        0 min,  0.093 sec
     gradient                   ...        0 min,  0.051 sec
 * total energy  :   -67.1004565 Eh     change       -0.1408027E-02 Eh
   gradient norm :     0.0244359 Eh/α   predicted    -0.1142302E-02 ( -18.87%)
   displ. norm   :     0.3666081 α      lambda       -0.1888362E-02
   maximum displ.:     0.1518307 α      in ANC's #4, #6, #23, ...

........................................................................
.............................. CYCLE   37 ..............................
........................................................................

 iter      E             dE          RMSdq      gap      omega  full diag
   1    -67.7092241 -0.677092E+02  0.110E-01    5.48       0.0  T
   2    -67.7092347 -0.106682E-04  0.680E-02    5.48       1.0  T
   3    -67.7092379 -0.319969E-05  0.982E-03    5.48       1.5  T
   4    -67.7092383 -0.392046E-06  0.425E-03    5.48       3.4  T
   5    -67.7092384 -0.366316E-07  0.208E-03    5.48       6.9  T
   6    -67.7092384 -0.101137E-07  0.415E-04    5.49      34.8  T
   7    -67.7092384 -0.121169E-08  0.197E-04    5.49      73.4  T
     SCC iter.                  ...        0 min,  0.128 sec
     gradient                   ...        0 min,  0.056 sec
 * total energy  :   -67.1015725 Eh     change       -0.1116053E-02 Eh
   gradient norm :     0.0168796 Eh/α   predicted    -0.1071087E-02 (  -4.03%)
   displ. norm   :     0.4920313 α      lambda       -0.1647399E-02
   maximum displ.:     0.1987698 α      in ANC's #4, #6, #5, ...

........................................................................
.............................. CYCLE   38 ..............................
........................................................................

 iter      E             dE          RMSdq      gap      omega  full diag
   1    -67.7126316 -0.677126E+02  0.152E-01    5.42       0.0  T
   2    -67.7126500 -0.183578E-04  0.932E-02    5.42       1.0  T
   3    -67.7126559 -0.590767E-05  0.132E-02    5.42       1.1  T
   4    -67.7126565 -0.630534E-06  0.480E-03    5.42       3.0  T
   5    -67.7126566 -0.691267E-07  0.218E-03    5.42       6.6  T
   6    -67.7126566 -0.106423E-07  0.531E-04    5.42      27.2  T
   7    -67.7126566 -0.148000E-08  0.222E-04    5.42      65.0  T
     SCC iter.                  ...        0 min,  0.076 sec
     gradient                   ...        0 min,  0.090 sec
 * total energy  :   -67.1025287 Eh     change       -0.9561872E-03 Eh
   gradient norm :     0.0230110 Eh/α   predicted    -0.1023118E-02 (   7.00%)
   displ. norm   :     0.5167961 α      lambda       -0.1731778E-02
   maximum displ.:     0.1972482 α      in ANC's #4, #5, #6, ...

........................................................................
.............................. CYCLE   39 ..............................
........................................................................

 iter      E             dE          RMSdq      gap      omega  full diag
   1    -67.7044854 -0.677045E+02  0.166E-01    5.37       0.0  T
   2    -67.7045095 -0.241755E-04  0.103E-01    5.37       1.0  T
   3    -67.7045166 -0.707542E-05  0.127E-02    5.36       1.1  T
   4    -67.7045175 -0.873753E-06  0.643E-03    5.37       2.2  T
   5    -67.7045176 -0.935881E-07  0.273E-03    5.37       5.3  T
   6    -67.7045176 -0.133612E-07  0.520E-04    5.37      27.7  T
   7    -67.7045176 -0.202887E-08  0.257E-04    5.37      56.2  T
     SCC iter.                  ...        0 min,  0.056 sec
     gradient                   ...        0 min,  0.046 sec
 * total energy  :   -67.1033500 Eh     change       -0.8212443E-03 Eh
   gradient norm :     0.0266509 Eh/α   predicted    -0.1097152E-02 (  33.60%)
   displ. norm   :     0.2747072 α      lambda       -0.1544941E-02
   maximum displ.:     0.1138322 α      in ANC's #5, #4, #21, ...

........................................................................
.............................. CYCLE   40 ..............................
........................................................................

 iter      E             dE          RMSdq      gap      omega  full diag
   1    -67.7133725 -0.677134E+02  0.787E-02    5.47       0.0  T
   2    -67.7133781 -0.560145E-05  0.479E-02    5.46       1.0  T
   3    -67.7133798 -0.179237E-05  0.594E-03    5.45       2.4  T
   4    -67.7133800 -0.185495E-06  0.263E-03    5.45       5.5  T
   5    -67.7133801 -0.237000E-07  0.120E-03    5.45      12.0  T
   6    -67.7133801 -0.520166E-08  0.296E-04    5.45      48.8  T
   7    -67.7133801 -0.682846E-09  0.170E-04    5.45      84.7  T
     SCC iter.                  ...        0 min,  0.147 sec
     gradient                   ...        0 min,  0.047 sec
 * total energy  :   -67.1042999 Eh     change       -0.9498708E-03 Eh
   gradient norm :     0.0148525 Eh/α   predicted    -0.8307644E-03 ( -12.54%)
   displ. norm   :     0.4419000 α      lambda       -0.1192578E-02
   maximum displ.:     0.1890031 α      in ANC's #5, #6, #4, ...

........................................................................
.............................. CYCLE   41 ..............................
........................................................................

 iter      E             dE          RMSdq      gap      omega  full diag
   1    -67.7116409 -0.677116E+02  0.957E-02    5.52       0.0  T
   2    -67.7116452 -0.435229E-05  0.585E-02    5.52       1.0  T
   3    -67.7116472 -0.199351E-05  0.574E-03    5.51       2.5  T
   4    -67.7116474 -0.164591E-06  0.319E-03    5.51       4.5  T
   5    -67.7116474 -0.309571E-07  0.117E-03    5.51      12.3  T
   6    -67.7116474 -0.466929E-08  0.309E-04    5.51      46.8  T
   7    -67.7116474 -0.722054E-09  0.168E-04    5.51      85.7  T
     SCC iter.                  ...        0 min,  0.114 sec
     gradient                   ...        0 min,  0.045 sec
 * total energy  :   -67.1049930 Eh     change       -0.6931776E-03 Eh
   gradient norm :     0.0193632 Eh/α   predicted    -0.7127306E-03 (   2.82%)
   displ. norm   :     0.5127972 α      lambda       -0.1676587E-02
   maximum displ.:     0.1969243 α      in ANC's #5, #21, #24, ...

........................................................................
.............................. CYCLE   42 ..............................
........................................................................

 iter      E             dE          RMSdq      gap      omega  full diag
   1    -67.7159856 -0.677160E+02  0.115E-01    5.62       0.0  T
   2    -67.7159951 -0.943606E-05  0.711E-02    5.62       1.0  T
   3    -67.7159986 -0.350981E-05  0.835E-03    5.61       1.7  T
   4    -67.7159991 -0.492745E-06  0.448E-03    5.61       3.2  T
   5    -67.7159992 -0.638725E-07  0.186E-03    5.61       7.8  T
   6    -67.7159992 -0.112197E-07  0.466E-04    5.61      31.0  T
   7    -67.7159992 -0.161661E-08  0.244E-04    5.61      59.2  T
     SCC iter.                  ...        0 min,  0.133 sec
     gradient                   ...        0 min,  0.055 sec
 * total energy  :   -67.1051837 Eh     change       -0.1906407E-03 Eh
   gradient norm :     0.0360230 Eh/α   predicted    -0.1058734E-02 ( 455.36%)
   displ. norm   :     0.3428019 α      lambda       -0.2462818E-02
   maximum displ.:     0.1508246 α      in ANC's #17, #5, #15, ...
 * RMSD in coord.:     0.9414538 α      energy gain  -0.7218303E-01 Eh

generating ANC from exact Hessian ...
Using Lindh-Hessian (1995)
 Shifting diagonal of input Hessian by    1.0249778491683986E-002
 Lowest  eigenvalues of input Hessian
    0.000000    0.010000    0.010061    0.000000    0.000000    0.000000
    0.000000    0.000000    0.010408    0.010471    0.010601    0.010696
    0.010844    0.010976    0.011117    0.011248    0.011258    0.011420
 Highest eigenvalues
    1.411494    1.434704    1.437502    1.442643    1.457749    1.594179


........................................................................
.............................. CYCLE   43 ..............................
........................................................................

 iter      E             dE          RMSdq      gap      omega  full diag
   1    -67.7134145 -0.677134E+02  0.140E-01    5.60       0.0  T
   2    -67.7134212 -0.669454E-05  0.866E-02    5.60       1.0  T
   3    -67.7134241 -0.286199E-05  0.128E-02    5.59       1.1  T
   4    -67.7134242 -0.157835E-06  0.431E-03    5.60       3.3  T
   5    -67.7134243 -0.824342E-07  0.150E-03    5.60       9.6  T
   6    -67.7134243 -0.807232E-08  0.423E-04    5.60      34.1  T
   7    -67.7134243 -0.118706E-08  0.202E-04    5.60      71.6  T
     SCC iter.                  ...        0 min,  0.111 sec
     gradient                   ...        0 min,  0.046 sec
 * total energy  :   -67.1052674 Eh     change       -0.8370700E-04 Eh
   gradient norm :     0.0415499 Eh/α   predicted     0.0000000E+00 (-100.00%)
   displ. norm   :     0.2194729 α      lambda       -0.2734205E-02
   maximum displ.:     0.0884809 α      in ANC's #21, #18, #20, ...

........................................................................
.............................. CYCLE   44 ..............................
........................................................................

 iter      E             dE          RMSdq      gap      omega  full diag
   1    -67.7164285 -0.677164E+02  0.841E-02    5.64       0.0  T
   2    -67.7164311 -0.261443E-05  0.506E-02    5.64       1.0  T
   3    -67.7164319 -0.804975E-06  0.578E-03    5.64       2.5  T
   4    -67.7164321 -0.190017E-06  0.333E-03    5.64       4.3  T
   5    -67.7164321 -0.172371E-07  0.721E-04    5.64      20.0  T
   6    -67.7164321 -0.194956E-08  0.214E-04    5.64      67.5  T
     SCC iter.                  ...        0 min,  0.059 sec
     gradient                   ...        0 min,  0.083 sec
 * total energy  :   -67.1072740 Eh     change       -0.2006607E-02 Eh
   gradient norm :     0.0151453 Eh/α   predicted    -0.1433108E-02 ( -28.58%)
   displ. norm   :     0.3314856 α      lambda       -0.1629859E-02
   maximum displ.:     0.1356030 α      in ANC's #21, #30, #7, ...

........................................................................
.............................. CYCLE   45 ..............................
........................................................................

 iter      E             dE          RMSdq      gap      omega  full diag
   1    -67.7164543 -0.677165E+02  0.876E-02    5.66       0.0  T
   2    -67.7164574 -0.310932E-05  0.525E-02    5.66       1.0  T
   3    -67.7164582 -0.857344E-06  0.495E-03    5.67       2.9  T
   4    -67.7164585 -0.232894E-06  0.278E-03    5.67       5.2  T
   5    -67.7164585 -0.157739E-07  0.781E-04    5.67      18.5  T
   6    -67.7164585 -0.217464E-08  0.265E-04    5.67      54.4  T
     SCC iter.                  ...        0 min,  0.110 sec
     gradient                   ...        0 min,  0.053 sec
 * total energy  :   -67.1084233 Eh     change       -0.1149315E-02 Eh
   gradient norm :     0.0131472 Eh/α   predicted    -0.9045715E-03 ( -21.29%)
   displ. norm   :     0.4135346 α      lambda       -0.1208607E-02
   maximum displ.:     0.1550618 α      in ANC's #30, #21, #7, ...

........................................................................
.............................. CYCLE   46 ..............................
........................................................................

 iter      E             dE          RMSdq      gap      omega  full diag
   1    -67.7139865 -0.677140E+02  0.916E-02    5.66       0.0  T
   2    -67.7139889 -0.246187E-05  0.551E-02    5.66       1.0  T
   3    -67.7139896 -0.661348E-06  0.488E-03    5.67       3.0  T
   4    -67.7139898 -0.154208E-06  0.269E-03    5.67       5.4  T
   5    -67.7139898 -0.157346E-07  0.920E-04    5.67      15.7  T
   6    -67.7139898 -0.229373E-08  0.279E-04    5.67      51.6  T
     SCC iter.                  ...        0 min,  0.065 sec
     gradient                   ...        0 min,  0.066 sec
 * total energy  :   -67.1093315 Eh     change       -0.9082134E-03 Eh
   gradient norm :     0.0183982 Eh/α   predicted    -0.7076556E-03 ( -22.08%)
   displ. norm   :     0.4578681 α      lambda       -0.1198798E-02
   maximum displ.:     0.2204005 α      in ANC's #30, #7, #6, ...

........................................................................
.............................. CYCLE   47 ..............................
........................................................................

 iter      E             dE          RMSdq      gap      omega  full diag
   1    -67.7129925 -0.677130E+02  0.819E-02    5.65       0.0  T
   2    -67.7129959 -0.336889E-05  0.489E-02    5.66       1.0  T
   3    -67.7129964 -0.509680E-06  0.498E-03    5.66       2.9  T
   4    -67.7129965 -0.116018E-06  0.289E-03    5.66       5.0  T
   5    -67.7129966 -0.149412E-07  0.896E-04    5.66      16.1  T
   6    -67.7129966 -0.528689E-08  0.302E-04    5.66      47.7  T
     SCC iter.                  ...        0 min,  0.068 sec
     gradient                   ...        0 min,  0.050 sec
 * total energy  :   -67.1102340 Eh     change       -0.9025208E-03 Eh
   gradient norm :     0.0192265 Eh/α   predicted    -0.7251600E-03 ( -19.65%)
   displ. norm   :     0.4421894 α      lambda       -0.1459483E-02
   maximum displ.:     0.2319950 α      in ANC's #30, #6, #7, ...

........................................................................
.............................. CYCLE   48 ..............................
........................................................................

 iter      E             dE          RMSdq      gap      omega  full diag
   1    -67.7192904 -0.677193E+02  0.741E-02    5.66       0.0  T
   2    -67.7192939 -0.357045E-05  0.447E-02    5.66       1.0  T
   3    -67.7192949 -0.929657E-06  0.692E-03    5.65       2.1  T
   4    -67.7192950 -0.150556E-06  0.419E-03    5.66       3.4  T
   5    -67.7192950 -0.270933E-07  0.992E-04    5.66      14.6  T
   6    -67.7192950 -0.656833E-08  0.367E-04    5.66      39.3  T
     SCC iter.                  ...        0 min,  0.052 sec
     gradient                   ...        0 min,  0.090 sec
 * total energy  :   -67.1110862 Eh     change       -0.8522072E-03 Eh
   gradient norm :     0.0189211 Eh/α   predicted    -0.8724311E-03 (   2.37%)
   displ. norm   :     0.5662185 α      lambda       -0.1715761E-02
   maximum displ.:     0.2479925 α      in ANC's #30, #6, #7, ...

........................................................................
.............................. CYCLE   49 ..............................
........................................................................

 iter      E             dE          RMSdq      gap      omega  full diag
   1    -67.7166352 -0.677166E+02  0.119E-01    5.65       0.0  T
   2    -67.7166433 -0.806084E-05  0.735E-02    5.65       1.0  T
   3    -67.7166455 -0.219121E-05  0.122E-02    5.64       1.2  T
   4    -67.7166459 -0.458881E-06  0.754E-03    5.64       1.9  T
   5    -67.7166460 -0.571138E-07  0.130E-03    5.65      11.1  T
   6    -67.7166460 -0.119215E-07  0.539E-04    5.64      26.8  T
   7    -67.7166460 -0.189404E-08  0.294E-04    5.64      49.1  T
     SCC iter.                  ...        0 min,  0.142 sec
     gradient                   ...        0 min,  0.062 sec
 * total energy  :   -67.1115262 Eh     change       -0.4399890E-03 Eh
   gradient norm :     0.0319326 Eh/α   predicted    -0.1132922E-02 ( 157.49%)
   displ. norm   :     0.2328452 α      lambda       -0.2174602E-02
   maximum displ.:     0.0835134 α      in ANC's #6, #30, #33, ...

........................................................................
.............................. CYCLE   50 ..............................
........................................................................

 iter      E             dE          RMSdq      gap      omega  full diag
   1    -67.7250061 -0.677250E+02  0.926E-02    5.66       0.0  T
   2    -67.7250149 -0.881003E-05  0.555E-02    5.65       1.0  T
   3    -67.7250177 -0.284796E-05  0.860E-03    5.65       1.7  T
   4    -67.7250180 -0.285382E-06  0.503E-03    5.65       2.9  T
   5    -67.7250181 -0.394688E-07  0.193E-03    5.65       7.5  T
   6    -67.7250181 -0.864866E-08  0.502E-04    5.65      28.7  T
   7    -67.7250181 -0.101119E-08  0.251E-04    5.65      57.5  T
     SCC iter.                  ...        0 min,  0.103 sec
     gradient                   ...        0 min,  0.047 sec
 * total energy  :   -67.1113060 Eh     change        0.2202779E-03 Eh
   gradient norm :     0.0477294 Eh/α   predicted    -0.1146256E-02 (-620.37%)
   displ. norm   :     0.2304615 α      lambda       -0.3702518E-02
   maximum displ.:     0.0913078 α      in ANC's #33, #18, #16, ...

........................................................................
.............................. CYCLE   51 ..............................
........................................................................

 iter      E             dE          RMSdq      gap      omega  full diag
   1    -67.7258526 -0.677259E+02  0.106E-01    5.68       0.0  T
   2    -67.7258588 -0.618159E-05  0.655E-02    5.68       1.0  T
   3    -67.7258616 -0.274995E-05  0.108E-02    5.68       1.3  T
   4    -67.7258617 -0.152993E-06  0.471E-03    5.68       3.1  T
   5    -67.7258618 -0.431021E-07  0.104E-03    5.68      13.8  T
   6    -67.7258618 -0.491438E-08  0.349E-04    5.68      41.4  T
   7    -67.7258618 -0.735810E-09  0.160E-04    5.68      90.4  T
     SCC iter.                  ...        0 min,  0.103 sec
     gradient                   ...        0 min,  0.052 sec
 * total energy  :   -67.1123160 Eh     change       -0.1010055E-02 Eh
   gradient norm :     0.0267415 Eh/α   predicted    -0.1949586E-02 (  93.02%)
[...]
          :  # basis functions                 102          :
          :  # atomic orbitals                 102          :
          :  # shells                           66          :
          :  # electrons                       114          :
          :  max. iterations                   250          :
          :  Hamiltonian                  GFN2-xTB          :
          :  restarted?                      false          :
          :  GBSA solvation                   true          :
          :  PC potential                    false          :
          :  electronic temp.          300.0000000     K    :
          :  accuracy                    1.0000000          :
          :  -> integral cutoff          0.2500000E+02      :
          :  -> integral neglect         0.1000000E-07      :
          :  -> SCF convergence          0.1000000E-05 Eh   :
          :  -> wf. convergence          0.1000000E-03 e    :
          :  Broyden damping             0.4000000          :
          :  net charge                          2          :
          :  unpaired electrons                  0          :
          ...................................................

 iter      E             dE          RMSdq      gap      omega  full diag
   1    -67.7382911 -0.677383E+02  0.615E-05    6.02       0.0  T
   2    -67.7382911 -0.542855E-11  0.369E-05    6.02     391.3  T
   3    -67.7382911 -0.319744E-11  0.760E-06    6.02    1898.7  T

   *** convergence criteria satisfied after 3 iterations ***

         #    Occupation            Energy/Eh            Energy/eV
      -------------------------------------------------------------
         1        2.0000           -0.7525028             -20.4766
       ...           ...                  ...                  ...
        51        2.0000           -0.4450471             -12.1103
        52        2.0000           -0.4363438             -11.8735
        53        2.0000           -0.4300161             -11.7013
        54        2.0000           -0.4278741             -11.6430
        55        2.0000           -0.4201621             -11.4332
        56        2.0000           -0.4176282             -11.3642
        57        2.0000           -0.4164616             -11.3325 (HOMO)
        58                         -0.1952468              -5.3129 (LUMO)
        59                         -0.1620893              -4.4107
        60                          0.0206787               0.5627
        61                          0.0234664               0.6386
        62                          0.0269775               0.7341
       ...                                ...                  ...
       102                          0.9941297              27.0516
      -------------------------------------------------------------
                  HL-Gap            0.2212147 Eh            6.0196 eV
             Fermi-level           -0.3058542 Eh           -8.3227 eV

 SCC (total)                   0 d,  0 h,  0 min,  0.214 sec
 SCC setup                      ...        0 min,  0.007 sec (  3.361%)
 Dispersion                     ...        0 min,  0.008 sec (  3.734%)
 classical contributions        ...        0 min,  0.004 sec (  1.814%)
 integral evaluation            ...        0 min,  0.021 sec (  9.628%)
 iterations                     ...        0 min,  0.081 sec ( 37.711%)
 molecular gradient             ...        0 min,  0.088 sec ( 41.009%)
 printout                       ...        0 min,  0.006 sec (  2.726%)

         :::::::::::::::::::::::::::::::::::::::::::::::::::::
         ::                     SUMMARY                     ::
         :::::::::::::::::::::::::::::::::::::::::::::::::::::
         :: total energy             -67.123966016609 Eh    ::
         :: total w/o Gsasa/hb       -67.057051804817 Eh    ::
         :: gradient norm              0.000359024026 Eh/a0 ::
         :: HOMO-LUMO gap              6.019559551667 eV    ::
         ::.................................................::
         :: SCC energy               -67.738220895982 Eh    ::
         :: -> isotropic ES            0.506466818701 Eh    ::
         :: -> anisotropic ES         -0.015452395685 Eh    ::
         :: -> anisotropic XC          0.007062641442 Eh    ::
         :: -> dispersion             -0.031684570987 Eh    ::
         :: -> Gsolv                  -0.347377955592 Eh    ::
         ::    -> Gelec               -0.280463743799 Eh    ::
         ::    -> Gsasa                0.000541472333 Eh    ::
         ::    -> Ghb                 -0.068536443824 Eh    ::
         ::    -> Gshift               0.001080759698 Eh    ::
         :: repulsion energy           0.614254879373 Eh    ::
         :: add. restraining           0.000000000000 Eh    ::
         :: total charge               2.000000000000 e     ::
         :::::::::::::::::::::::::::::::::::::::::::::::::::::

           -------------------------------------------------
          |                Property Printout                |
           -------------------------------------------------

    * Orbital Energies and Occupations

         #    Occupation            Energy/Eh            Energy/eV
      -------------------------------------------------------------
         1        2.0000           -0.7525028             -20.4766
       ...           ...                  ...                  ...
        45        2.0000           -0.4658055             -12.6752
        46        2.0000           -0.4650221             -12.6539
        47        2.0000           -0.4637250             -12.6186
        48        2.0000           -0.4519528             -12.2983
        49        2.0000           -0.4509557             -12.2711
        50        2.0000           -0.4471121             -12.1665
        51        2.0000           -0.4450471             -12.1103
        52        2.0000           -0.4363438             -11.8735
        53        2.0000           -0.4300161             -11.7013
        54        2.0000           -0.4278741             -11.6430
        55        2.0000           -0.4201621             -11.4332
        56        2.0000           -0.4176282             -11.3642
        57        2.0000           -0.4164616             -11.3325 (HOMO)
        58                         -0.1952468              -5.3129 (LUMO)
        59                         -0.1620893              -4.4107
        60                          0.0206787               0.5627
        61                          0.0234664               0.6386
        62                          0.0269775               0.7341
        63                          0.0378677               1.0304
        64                          0.0635272               1.7287
        65                          0.0738034               2.0083
        66                          0.0890475               2.4231
        67                          0.1027460               2.7959
        68                          0.1107234               3.0129
       ...                                ...                  ...
       102                          0.9941297              27.0516
      -------------------------------------------------------------
                  HL-Gap            0.2212147 Eh            6.0196 eV
             Fermi-level           -0.3058542 Eh           -8.3227 eV

     #   Z          covCN         q      C6AA      α(0)
     1   6 C        3.752    -0.110    22.663     6.789
     2   6 C        3.801    -0.058    21.610     6.619
     3   6 C        3.803    -0.065    21.736     6.637
     4   6 C        3.803    -0.064    21.718     6.635
     5   6 C        3.803    -0.067    21.787     6.645
     6   6 C        3.803    -0.068    21.792     6.646
     7   6 C        3.803    -0.075    21.922     6.666
     8   6 C        3.803    -0.093    22.272     6.719
     9   6 C        3.604     0.233    17.450     6.039
    10   8 O        1.778    -0.214    17.533     5.654
    11   8 O        1.656    -0.503    22.965     6.469
    12   1 H        0.804     0.378     0.527     1.140
    13   1 H        0.925     0.034     2.526     2.486
    14   1 H        0.925     0.030     2.590     2.517
    15   1 H        0.925     0.036     2.496     2.471
    16   1 H        0.924     0.026     2.639     2.541
    17   1 H        0.924     0.029     2.603     2.523
    18   1 H        0.924     0.031     2.574     2.509
    19   1 H        0.924     0.035     2.522     2.484
    20   1 H        0.924     0.026     2.647     2.545
    21   1 H        0.924     0.031     2.578     2.511
    22   1 H        0.924     0.034     2.532     2.488
    23   1 H        0.924     0.042     2.420     2.433
    24   1 H        0.924     0.030     2.586     2.515
    25   1 H        0.924     0.041     2.440     2.443
    26   1 H        0.924     0.046     2.373     2.409
    27   1 H        0.925     0.065     2.138     2.287
    28   1 H        0.924     0.063     2.161     2.299
    29   1 H        0.924     0.075     2.027     2.226
    30  48 Cd       4.050     0.462   190.439    26.488
    31   8 O        2.312    -0.553    24.005     6.617
    32   1 H        0.805     0.409     0.467     1.074
    33   1 H        0.805     0.407     0.471     1.078
    34   8 O        2.273    -0.253    18.165     5.756
    35   1 H        0.802     0.417     0.454     1.059
    36   1 H        0.923     0.065     2.145     2.290
    37   8 O        2.301    -0.552    23.984     6.614
    38   1 H        0.805     0.409     0.469     1.076
    39   1 H        0.805     0.408     0.469     1.076
    40   8 O        2.309    -0.534    23.568     6.557
    41   1 H        0.804     0.412     0.463     1.069
    42   1 H        0.806     0.392     0.499     1.110
    43   8 O        2.307    -0.555    24.039     6.622
    44   1 H        0.805     0.413     0.461     1.066
    45   1 H        0.805     0.404     0.477     1.085
    46   8 O        2.314    -0.532    23.528     6.551
    47   1 H        0.805     0.415     0.459     1.064
    48   1 H        0.807     0.395     0.494     1.104

 Mol. C6AA /au·bohr⁶  :      16594.483902
 Mol. C8AA /au·bohr⁸  :     420888.296723
 Mol. α(0) /au        :        193.698255


Wiberg/Mayer (AO) data.
largest (>0.10) Wiberg bond orders for each atom

 ---------------------------------------------------------------------------
     #   Z sym  total        # sym  WBO       # sym  WBO       # sym  WBO
 ---------------------------------------------------------------------------
     1   6 C    3.996 --     2 C    1.019    13 H    0.988    15 H    0.988
                            14 H    0.988
     2   6 C    3.997 --     1 C    1.019     3 C    1.008    16 H    0.979
                            17 H    0.979
     3   6 C    3.997 --     2 C    1.008     4 C    1.007    19 H    0.977
                            18 H    0.977
     4   6 C    3.996 --     3 C    1.007     5 C    1.007    21 H    0.978
                            20 H    0.977
     5   6 C    3.996 --     6 C    1.007     4 C    1.007    23 H    0.977
                            22 H    0.977
     6   6 C    3.995 --     7 C    1.007     5 C    1.007    25 H    0.977
                            24 H    0.977
     7   6 C    3.993 --     6 C    1.007     8 C    1.006    26 H    0.976
                            27 H    0.975
     8   6 C    3.988 --     7 C    1.006     9 C    0.975    29 H    0.969
                            28 H    0.967
     9   6 C    3.915 --    11 O    1.011     8 C    0.975    36 H    0.948
                            10 O    0.947
    10   8 O    2.070 --    34 O    0.969     9 C    0.947
    11   8 O    1.958 --     9 C    1.011    12 H    0.838
    12   1 H    0.857 --    11 O    0.838
    13   1 H    0.999 --     1 C    0.988
    14   1 H    0.999 --     1 C    0.988
    15   1 H    0.999 --     1 C    0.988
    16   1 H    0.999 --     2 C    0.979
    17   1 H    0.999 --     2 C    0.979
    18   1 H    0.999 --     3 C    0.977
    19   1 H    0.999 --     3 C    0.977
    20   1 H    0.999 --     4 C    0.977
    21   1 H    0.999 --     4 C    0.978
    22   1 H    0.999 --     5 C    0.977
    23   1 H    0.998 --     5 C    0.977
    24   1 H    0.999 --     6 C    0.977
    25   1 H    0.998 --     6 C    0.977
    26   1 H    0.998 --     7 C    0.976
    27   1 H    0.996 --     7 C    0.975
    28   1 H    0.996 --     8 C    0.967
    29   1 H    0.994 --     8 C    0.969
    30  48 Cd   2.142 --    46 O    0.362    40 O    0.355    37 O    0.349
                            43 O    0.348    31 O    0.346    34 O    0.224
    31   8 O    2.103 --    33 H    0.823    32 H    0.821    30 Cd   0.346
    32   1 H    0.832 --    31 O    0.821
    33   1 H    0.834 --    31 O    0.823
    34   8 O    2.119 --    10 O    0.969    35 H    0.803    30 Cd   0.224
    35   1 H    0.826 --    34 O    0.803
    36   1 H    0.996 --     9 C    0.948
    37   8 O    2.106 --    38 H    0.822    39 H    0.822    30 Cd   0.349
    38   1 H    0.833 --    37 O    0.822
    39   1 H    0.833 --    37 O    0.822
    40   8 O    2.127 --    42 H    0.836    41 H    0.819    30 Cd   0.355
    41   1 H    0.830 --    40 O    0.819
    42   1 H    0.846 --    40 O    0.836
    43   8 O    2.101 --    45 H    0.826    44 H    0.818    30 Cd   0.348
    44   1 H    0.829 --    43 O    0.818
    45   1 H    0.837 --    43 O    0.826
    46   8 O    2.136 --    48 H    0.831    47 H    0.817    30 Cd   0.362
    47   1 H    0.828 --    46 O    0.817
    48   1 H    0.844 --    46 O    0.831
 ---------------------------------------------------------------------------

Topologies differ in total number of bonds
Writing topology from bond orders to xtbtopo.mol

molecular dipole:
                 x           y           z       tot (Debye)
 q only:       33.094      -2.445       0.987
   full:       32.879      -2.436       0.943      83.834
molecular quadrupole (traceless):
                xx          xy          yy          xz          yz          zz
 q only:      547.696     -67.545    -269.360      27.185      -8.841    -278.336
  q+dip:      544.492     -71.286    -268.173      25.094      -8.916    -276.319
   full:      545.965     -70.434    -268.528      25.733      -9.598    -277.438

           -------------------------------------------------
          |                Geometry Summary                 |
           -------------------------------------------------

      molecular mass/u    :      378.7416428
   center of mass at/Å    :        5.9021401      -0.0344508       0.3157165
  moments of inertia/u·Å² :        0.8882698E+03   0.6903248E+04   0.7375610E+04
rotational constants/cm⁻¹ :        0.1897805E-01   0.2441986E-02   0.2285591E-02

 * 46 selected distances

     #   Z          #   Z                                           value/Å
     1   6 C        2   6 C                                       1.5243008
     2   6 C        3   6 C                                       1.5268812
     3   6 C        4   6 C                                       1.5270286
     4   6 C        5   6 C                                       1.5269107
     5   6 C        6   6 C                                       1.5274041
     6   6 C        7   6 C                                       1.5274810
     7   6 C        8   6 C                                       1.5274030
     8   6 C        9   6 C                                       1.5240567
     9   6 C       10   8 O                                       1.4216768
     9   6 C       11   8 O                                       1.3910108
    11   8 O       12   1 H                                       0.9689559
     1   6 C       13   1 H                                       1.0879993
     1   6 C       14   1 H                                       1.0875807
     1   6 C       15   1 H                                       1.0878051
     2   6 C       16   1 H                                       1.0927612
     2   6 C       17   1 H                                       1.0925467
     3   6 C       18   1 H                                       1.0928024
     3   6 C       19   1 H                                       1.0924255
     4   6 C       20   1 H                                       1.0930443
     4   6 C       21   1 H                                       1.0925850
     5   6 C       22   1 H                                       1.0925071
     5   6 C       23   1 H                                       1.0916821
     6   6 C       24   1 H                                       1.0925026
     6   6 C       25   1 H                                       1.0916643
     7   6 C       26   1 H                                       1.0915081
     7   6 C       27   1 H                                       1.0887063
     8   6 C       28   1 H                                       1.0911291
     8   6 C       29   1 H                                       1.0903294
    30  48 Cd      31   8 O                                       2.1118229
    31   8 O       32   1 H                                       0.9671556
    31   8 O       33   1 H                                       0.9670609
    10   8 O       34   8 O                                       1.4294245
    34   8 O       35   1 H                                       0.9860096
     9   6 C       36   1 H                                       1.0987106
    30  48 Cd      37   8 O                                       2.1371783 (max)
    37   8 O       38   1 H                                       0.9686623
    37   8 O       39   1 H                                       0.9680548
    30  48 Cd      40   8 O                                       2.1180559
Note: The following floating-point exceptions are signalling: IEEE_UNDERFLOW_FLAG IEEE_DENORMAL
normal termination of xtb
    40   8 O       41   1 H                                       0.9688191
    40   8 O       42   1 H                                       0.9680889
    30  48 Cd      43   8 O                                       2.1248471
    43   8 O       44   1 H                                       0.9678243
    43   8 O       45   1 H                                       0.9669872 (min)
    30  48 Cd      46   8 O                                       2.1026452
    46   8 O       47   1 H                                       0.9690658
    46   8 O       48   1 H                                       0.9688029

 * 6 distinct bonds (by element types)

   Z      Z             #   av. dist./Å        max./Å        min./Å
   1 H    6 C          18     1.0915717     1.0987106     1.0875807
   6 C    6 C           8     1.5264333     1.5274810     1.5240567
   1 H    8 O          12     0.9696239     0.9860096     0.9669872
   6 C    8 O           2     1.4063438     1.4216768     1.3910108
   8 O    8 O           1     1.4294245     1.4294245     1.4294245
   8 O   48 Cd          5     2.1189099     2.1371783     2.1026452


optimized geometry written to: xtbopt.xyz


           -------------------------------------------------
          | TOTAL ENERGY              -67.123966016609 Eh   |
          | GRADIENT NORM               0.000359024026 Eh/α |
          | HOMO-LUMO GAP               6.019559551667 eV   |
           -------------------------------------------------

------------------------------------------------------------------------
 * finished run on 2026/05/26 at 02:16:12.323     
------------------------------------------------------------------------
 total:
 * wall-time:     0 d,  0 h,  0 min, 42.098 sec
 *  cpu-time:     0 d,  0 h,  1 min,  8.265 sec
 * ratio c/w:     1.622 speedup
 SCF:
 * wall-time:     0 d,  0 h,  0 min,  0.302 sec
 *  cpu-time:     0 d,  0 h,  0 min,  0.602 sec
 * ratio c/w:     1.991 speedup
 ANC optimizer:
 * wall-time:     0 d,  0 h,  0 min, 41.733 sec
 *  cpu-time:     0 d,  0 h,  1 min,  7.558 sec
 * ratio c/w:     1.619 speedup

