      -----------------------------------------------------------      
     |                   =====================                   |     
     |                           x T B                           |     
     |                   =====================                   |     
     |                         S. Grimme                         |     
     |          Mulliken Center for Theoretical Chemistry        |     
     |                    University of Bonn                     |     
      -----------------------------------------------------------      

   * xtb version 6.7.1 (edcfbbe) compiled by 'conda@c0858423619e' on 2025-09-04

   xtb is free software: you can redistribute it and/or modify it under
   the terms of the GNU Lesser General Public License as published by
   the Free Software Foundation, either version 3 of the License, or
   (at your option) any later version.
   
   xtb is distributed in the hope that it will be useful,
   but WITHOUT ANY WARRANTY; without even the implied warranty of
   MERCHANTABILITY or FITNESS FOR A PARTICULAR PURPOSE.  See the
   GNU Lesser General Public License for more details.
   
   Cite this work as:
   * C. Bannwarth, E. Caldeweyher, S. Ehlert, A. Hansen, P. Pracht,
     J. Seibert, S. Spicher, S. Grimme, WIREs Comput. Mol. Sci., 2020, 11,
     e01493. DOI: 10.1002/wcms.1493
   
   for GFN2-xTB:
   * C. Bannwarth, S. Ehlert and S. Grimme., J. Chem. Theory Comput., 2019,
     15, 1652-1671. DOI: 10.1021/acs.jctc.8b01176
   for GFN1-xTB:
   * S. Grimme, C. Bannwarth, P. Shushkov, J. Chem. Theory Comput., 2017,
     13, 1989-2009. DOI: 10.1021/acs.jctc.7b00118
   for GFN0-xTB:
   * P. Pracht, E. Caldeweyher, S. Ehlert, S. Grimme, ChemRxiv, 2019, preprint.
     DOI: 10.26434/chemrxiv.8326202.v1
   for GFN-FF:
   * S. Spicher and S. Grimme, Angew. Chem. Int. Ed., 2020, 59, 15665-15673.
     DOI: 10.1002/anie.202004239
   
   for ALPB and GBSA implicit solvation:
   * S. Ehlert, M. Stahn, S. Spicher, S. Grimme, J. Chem. Theory Comput.,
     2021, 17, 4250-4261. DOI: 10.1021/acs.jctc.1c00471
   
   for ddCOSMO and CPCM-X implicit solvation:
   * M. Stahn, S. Ehlert, S. Grimme, J. Phys. Chem. A,
     2023, XX, XXXX-XXXX. DOI: 10.1021/acs.jpca.3c04382
   
   for DFT-D4:
   * E. Caldeweyher, C. Bannwarth and S. Grimme, J. Chem. Phys., 2017,
     147, 034112. DOI: 10.1063/1.4993215
   * E. Caldeweyher, S. Ehlert, A. Hansen, H. Neugebauer, S. Spicher,
     C. Bannwarth and S. Grimme, J. Chem. Phys., 2019, 150, 154122.
     DOI: 10.1063/1.5090222
   * E. Caldeweyher, J.-M. Mewes, S. Ehlert and S. Grimme, Phys. Chem. Chem. Phys.
     2020, 22, 8499-8512. DOI: 10.1039/D0CP00502A
   
   for sTDA-xTB:
   * S. Grimme and C. Bannwarth, J. Chem. Phys., 2016, 145, 054103.
     DOI: 10.1063/1.4959605
   
   in the mass-spec context:
   * V. Asgeirsson, C. Bauer and S. Grimme, Chem. Sci., 2017, 8, 4879.
     DOI: 10.1039/c7sc00601b
   * J. Koopman and S. Grimme, ACS Omega 2019, 4, 12, 15120-15133.
     DOI: 10.1021/acsomega.9b02011
   
   for metadynamics refer to:
   * S. Grimme, J. Chem. Theory Comput., 2019, 155, 2847-2862
     DOI: 10.1021/acs.jctc.9b00143
   
   for SPH calculations refer to:
   * S. Spicher and S. Grimme, J. Chem. Theory Comput., 2021, 17, 1701-1714
     DOI: 10.1021/acs.jctc.0c01306
   
   for ONIOM refer to:
   * C. Plett, A. Katbashev, S. Ehlert, S. Grimme, M. Bursch,
     Phys. Chem. Chem. Phys., 2023, 25, 17860-17868. DOI: 10.1039/D3CP02178E
   
   for DIPRO refer to:
   * J. Kohn, N. Gildemeister, S. Grimme, D. Fazzi, A. Hansen,
     J. Chem. Phys., 2023, just accepted.
   
   for PTB refer to:
   * S. Grimme, M. Mueller, A. Hansen, J. Chem. Phys., 2023, 158, 124111.
     DOI: 10.1063/5.0137838
   
   with help from (in alphabetical order)
   P. Atkinson, C. Bannwarth, F. Bohle, G. Brandenburg, E. Caldeweyher
   M. Checinski, S. Dohm, S. Ehlert, S. Ehrlich, I. Gerasimov, C. Hölzer
   A. Katbashev, J. Kohn, J. Koopman, C. Lavigne, S. Lehtola, F. März, M. Müller,
   F. Musil, H. Neugebauer, J. Pisarek, C. Plett, P. Pracht, F. Pultar,
   J. Seibert, P. Shushkov, S. Spicher, M. Stahn, M. Steiner, T. Strunk,
   J. Stückrath, T. Rose, and J. Unsleber
   
 * started run on 2026/05/26 at 02:12:34.695     
   ID    Z sym.   atoms
    1    6 C      1-10
    2    1 H      11-32, 35, 36, 38, 39, 41, 42, 44, 45, 47, 48, 50, 51
    3   48 Cd     33
    4    8 O      34, 37, 40, 43, 46, 49

           -------------------------------------------------
          |                Calculation Setup                |
           -------------------------------------------------

          program call               : /content/xtb_env/bin/xtb input.xyz --gfn 2 --opt tight --alpb water --chrg 2 --uhf 0
          hostname                   : 01035569fb61
          coordinate file            : input.xyz
          omp threads                :                     2


molecular fragmentation (1/2 indicates fragments):
111111111111111111111111111111111111111111111222222
# atoms in fragment 1/2:    45     6
 fragment masses (1/2) :      326.75       36.03
CMA distance (Bohr)    :   7.686
constraining FC (au)   :  0.0500

           -------------------------------------------------
          |                 G F N 2 - x T B                 |
           -------------------------------------------------

        Reference                      10.1021/acs.jctc.8b01176
      * Hamiltonian:
        H0-scaling (s, p, d)           1.850000    2.230000    2.230000
        zeta-weighting                 0.500000
      * Dispersion:
        s8                             2.700000
        a1                             0.520000
        a2                             5.000000
        s9                             5.000000
      * Repulsion:
        kExp                           1.500000    1.000000
        rExp                           1.000000
      * Coulomb:
        alpha                          2.000000
        third order                    shell-resolved
        anisotropic                    true
        a3                             3.000000
        a5                             4.000000
        cn-shift                       1.200000
        cn-exp                         4.000000
        max-rad                        5.000000

      * Solvation model:               ALPB
        Solvent                        water
        Parameter file                 internal GFN2-xTB/ALPB
        Dielectric constant                8.0200E+01
        Reference state                gsolv [1 M gas/solution]
        Free energy shift                  1.0808E-03 Eh       6.7819E-01 kcal/mol
        Temperature                        2.9815E+02 K
        Density                            1.0000E+00 kg/L
        Solvent mass                       1.8000E+01 g/mol
        Interaction kernel             P16
        Born radius scaling (c1)           1.4744E+00
        Born radii integrator          GBOBC
        Born offset                        0.0000E+00 a0       0.0000E+00 AA
        H-bond correction              true
        Ion screening                  false
        Surface tension                    1.0000E-05 Eh       1.5569E+01 dyn/cm
        Grid points                               230 per atom

          ...................................................
          :                      SETUP                      :
          :.................................................:
          :  # basis functions                 102          :
          :  # atomic orbitals                 102          :
          :  # shells                           68          :
          :  # electrons                       110          :
          :  max. iterations                   250          :
          :  Hamiltonian                  GFN2-xTB          :
          :  restarted?                      false          :
          :  GBSA solvation                   true          :
          :  PC potential                    false          :
          :  electronic temp.          300.0000000     K    :
          :  accuracy                    1.0000000          :
          :  -> integral cutoff          0.2500000E+02      :
          :  -> integral neglect         0.1000000E-07      :
          :  -> SCF convergence          0.1000000E-05 Eh   :
          :  -> wf. convergence          0.1000000E-03 e    :
          :  Broyden damping             0.4000000          :
          :  net charge                          2          :
          :  unpaired electrons                  0          :
          ...................................................

 iter      E             dE          RMSdq      gap      omega  full diag
   1    -60.6499169 -0.606499E+02  0.554E+00    1.01       0.0  T
   2    -60.8548754 -0.204958E+00  0.516E+00    0.34       1.0  T
   3    -61.7271108 -0.872235E+00  0.268E+00    0.34       1.0  T
   4    -61.7516149 -0.245041E-01  0.155E+00    0.24       1.0  T
   5    -61.7316080  0.200069E-01  0.120E+00    0.56       1.0  T
   6    -61.7707019 -0.390939E-01  0.573E-01    0.41       1.0  T
   7    -61.7775436 -0.684167E-02  0.265E-01    0.37       1.0  T
   8    -61.7788091 -0.126547E-02  0.158E-01    0.39       1.0  T
   9    -61.7793480 -0.538940E-03  0.606E-02    0.37       1.0  T
  10    -61.7794309 -0.829341E-04  0.319E-02    0.36       1.0  T
  11    -61.7794534 -0.224960E-04  0.190E-02    0.37       1.0  T
  12    -61.7794566 -0.313464E-05  0.116E-02    0.36       1.2  T
  13    -61.7794583 -0.168097E-05  0.493E-03    0.36       2.8  T
  14    -61.7794585 -0.226034E-06  0.274E-03    0.36       5.1  T
  15    -61.7794585  0.815376E-09  0.147E-03    0.36       9.5  T
  16    -61.7794585 -0.310224E-07  0.622E-04    0.36      22.5  T
  17    -61.7794585 -0.606170E-08  0.179E-04    0.36      78.0  T

   *** convergence criteria satisfied after 17 iterations ***

         #    Occupation            Energy/Eh            Energy/eV
      -------------------------------------------------------------
         1        2.0000           -0.8282510             -22.5379
       ...           ...                  ...                  ...
        49        2.0000           -0.3558424              -9.6830
        50        2.0000           -0.3389563              -9.2235
        51        2.0000           -0.3166400              -8.6162
        52        2.0000           -0.2922779              -7.9533
        53        2.0000           -0.2865158              -7.7965
        54        2.0000           -0.2700653              -7.3489
        55        1.9982           -0.2520163              -6.8577 (HOMO)
        56        0.0018           -0.2387023              -6.4954 (LUMO)
        57                         -0.2145974              -5.8395
        58                         -0.1836128              -4.9964
        59                         -0.1432540              -3.8981
        60                         -0.1203190              -3.2740
       ...                                ...                  ...
       102                          3.1821481              86.5907
      -------------------------------------------------------------
                  HL-Gap            0.0133140 Eh            0.3623 eV
             Fermi-level           -0.2453593 Eh           -6.6766 eV

 SCC (total)                   0 d,  0 h,  0 min,  0.233 sec
 SCC setup                      ...        0 min,  0.004 sec (  1.737%)
 Dispersion                     ...        0 min,  0.001 sec (  0.416%)
 classical contributions        ...        0 min,  0.000 sec (  0.099%)
 integral evaluation            ...        0 min,  0.012 sec (  4.957%)
 iterations                     ...        0 min,  0.161 sec ( 69.224%)
 molecular gradient             ...        0 min,  0.054 sec ( 23.314%)
 printout                       ...        0 min,  0.001 sec (  0.236%)

         :::::::::::::::::::::::::::::::::::::::::::::::::::::
         ::                     SUMMARY                     ::
         :::::::::::::::::::::::::::::::::::::::::::::::::::::
         :: total energy             -60.774155898316 Eh    ::
         :: total w/o Gsasa/hb       -60.709532627124 Eh    ::
         :: gradient norm              2.843999390391 Eh/a0 ::
         :: HOMO-LUMO gap              0.362293068894 eV    ::
         ::.................................................::
         :: SCC energy               -61.779709847591 Eh    ::
         :: -> isotropic ES            0.577330846372 Eh    ::
         :: -> anisotropic ES          0.012208042418 Eh    ::
         :: -> anisotropic XC          0.031813571912 Eh    ::
         :: -> dispersion             -0.029920838686 Eh    ::
         :: -> Gsolv                  -0.396928468638 Eh    ::
         ::    -> Gelec               -0.332305197446 Eh    ::
         ::    -> Gsasa               -0.001784263742 Eh    ::
         ::    -> Ghb                 -0.063919767149 Eh    ::
         ::    -> Gshift               0.001080759698 Eh    ::
         :: repulsion energy           1.005553949275 Eh    ::
         :: add. restraining           0.000000000000 Eh    ::
         :: total charge               2.000000000010 e     ::
         :::::::::::::::::::::::::::::::::::::::::::::::::::::

      ----------------------------------------------------------- 
     |                   =====================                   |
     |                        A N C O P T                        |
     |                   =====================                   |
     |               Approximate Normal Coordinate               |
     |                Rational Function Optimizer                |
      ----------------------------------------------------------- 
      ----------------------------------------------------------- 
     |                   =====================                   |
     |                        A N C O P T                        |
     |                   =====================                   |
     |               Approximate Normal Coordinate               |
     |                Rational Function Optimizer                |
      ----------------------------------------------------------- 

          ...................................................
          :                      SETUP                      :
          :.................................................:
          :   optimization level             tight          :
          :   max. optcycles                   255          :
          :   ANC micro-cycles                  20          :
          :   degrees of freedom               147          :
          :.................................................:
          :   RF solver                   davidson          :
          :   write xtbopt.log                true          :
          :   linear?                        false          :
          :   energy convergence         0.1000000E-05 Eh   :
          :   grad. convergence          0.8000000E-03 Eh/α :
          :   maxmium RF displ.          1.0000000          :
          :   Hlow (freq-cutoff)         0.1000000E-01      :
          :   Hmax (freq-cutoff)         5.0000000          :
          :   S6 in model hess.         20.0000000          :
          ...................................................

generating ANC from exact Hessian ...
Using Lindh-Hessian (1995)
 Shifting diagonal of input Hessian by    1.0203434176530933E-002
 Lowest  eigenvalues of input Hessian
    0.010000    0.010106    0.010144    0.010154    0.000000    0.000000
    0.000000    0.000000    0.000000    0.000000    0.010244    0.010306
    0.010363    0.010417    0.010524    0.010555    0.010652    0.010675
 Highest eigenvalues
    1.564827    1.654335    2.078900    3.011967    3.335725    4.854395


........................................................................
.............................. CYCLE    1 ..............................
........................................................................

 iter      E             dE          RMSdq      gap      omega  full diag
   1    -61.7794585 -0.617795E+02  0.546E-05    0.36       0.0  T
   2    -61.7794585 -0.228937E-10  0.394E-05    0.36     355.8  T
   3    -61.7794585 -0.845546E-12  0.372E-05    0.36     376.3  T
     SCC iter.                  ...        0 min,  0.026 sec
     gradient                   ...        0 min,  0.058 sec
 * total energy  :   -60.7741559 Eh     change       -0.1649028E-09 Eh
   gradient norm :     2.8439953 Eh/α   predicted     0.0000000E+00 (-100.00%)
   displ. norm   :     0.6007822 α      lambda       -0.1535672E+01
   maximum displ.:     0.4047611 α      in ANC's #147, #100, #109, ...

........................................................................
.............................. CYCLE    2 ..............................
........................................................................

 iter      E             dE          RMSdq      gap      omega  full diag
   1    -62.0428524 -0.620429E+02  0.112E+00    0.76       0.0  T
   2    -62.0668322 -0.239797E-01  0.772E-01    0.75       1.0  T
   3    -62.0709358 -0.410360E-02  0.517E-01    0.78       1.0  T
   4    -62.0634474  0.748841E-02  0.464E-01    0.73       1.0  T
   5    -62.0722506 -0.880322E-02  0.119E-01    0.75       1.0  T
   6    -62.0723401 -0.894588E-04  0.516E-02    0.76       1.0  T
   7    -62.0724155 -0.754099E-04  0.204E-02    0.76       1.0  T
   8    -62.0724163 -0.799538E-06  0.140E-02    0.76       1.0  T
   9    -62.0724196 -0.335438E-05  0.759E-03    0.76       1.8  T
  10    -62.0724210 -0.139556E-05  0.297E-03    0.76       4.7  T
  11    -62.0724211 -0.107282E-06  0.155E-03    0.76       9.0  T
  12    -62.0724211 -0.268619E-07  0.571E-04    0.76      24.5  T
  13    -62.0724212 -0.596405E-08  0.193E-04    0.76      72.6  T
     SCC iter.                  ...        0 min,  0.107 sec
     gradient                   ...        0 min,  0.091 sec
 * total energy  :   -61.4061517 Eh     change       -0.6319958E+00 Eh
   gradient norm :     0.6068579 Eh/α   predicted    -0.1044983E+01 (  65.35%)
   displ. norm   :     0.7614324 α      lambda       -0.3729543E+00
   maximum displ.:     0.5332971 α      in ANC's #57, #119, #81, ...

........................................................................
.............................. CYCLE    3 ..............................
........................................................................

 iter      E             dE          RMSdq      gap      omega  full diag
   1    -62.3857643 -0.623858E+02  0.681E-01    1.26       0.0  T
   2    -62.3886231 -0.285882E-02  0.388E-01    1.29       1.0  T
   3    -62.3876728  0.950334E-03  0.222E-01    1.31       1.0  T
   4    -62.3890657 -0.139284E-02  0.952E-02    1.29       1.0  T
   5    -62.3892969 -0.231267E-03  0.336E-02    1.30       1.0  T
   6    -62.3893208 -0.238873E-04  0.186E-02    1.29       1.0  T
   7    -62.3893239 -0.312435E-05  0.106E-02    1.29       1.3  T
   8    -62.3893240 -0.423413E-07  0.491E-03    1.29       2.9  T
   9    -62.3893247 -0.710717E-06  0.202E-03    1.29       6.9  T
  10    -62.3893247 -0.367357E-07  0.102E-03    1.29      13.7  T
  11    -62.3893247 -0.150579E-07  0.454E-04    1.29      30.9  T
  12    -62.3893247 -0.197519E-08  0.215E-04    1.29      65.2  T
     SCC iter.                  ...        0 min,  0.166 sec
     gradient                   ...        0 min,  0.067 sec
 * total energy  :   -61.7324167 Eh     change       -0.3262650E+00 Eh
   gradient norm :     0.4064763 Eh/α   predicted    -0.2946041E+00 (  -9.70%)
   displ. norm   :     0.8376942 α      lambda       -0.3219001E+00
   maximum displ.:     0.5325027 α      in ANC's #57, #109, #119, ...

........................................................................
.............................. CYCLE    4 ..............................
........................................................................

 iter      E             dE          RMSdq      gap      omega  full diag
   1    -62.6686267 -0.626686E+02  0.739E-01    1.57       0.0  T
   2    -62.6739742 -0.534744E-02  0.386E-01    1.58       1.0  T
   3    -62.6741959 -0.221713E-03  0.200E-01    1.62       1.0  T
   4    -62.6746371 -0.441173E-03  0.705E-02    1.61       1.0  T
   5    -62.6746715 -0.344851E-04  0.314E-02    1.61       1.0  T
   6    -62.6746948 -0.232976E-04  0.141E-02    1.61       1.0  T
   7    -62.6746953 -0.453956E-06  0.874E-03    1.61       1.6  T
   8    -62.6746960 -0.697851E-06  0.394E-03    1.61       3.6  T
   9    -62.6746961 -0.100238E-06  0.162E-03    1.61       8.6  T
  10    -62.6746961 -0.134996E-07  0.922E-04    1.61      15.2  T
  11    -62.6746961 -0.308657E-07  0.359E-04    1.61      39.1  T
     SCC iter.                  ...        0 min,  0.226 sec
     gradient                   ...        0 min,  0.057 sec
 * total energy  :   -62.0166566 Eh     change       -0.2842399E+00 Eh
   gradient norm :     0.3150264 Eh/α   predicted    -0.2738940E+00 (  -3.64%)
   displ. norm   :     0.8798081 α      lambda       -0.2625649E+00
   maximum displ.:     0.6049303 α      in ANC's #57, #109, #100, ...

........................................................................
.............................. CYCLE    5 ..............................
........................................................................

 iter      E             dE          RMSdq      gap      omega  full diag
   1    -62.8757960 -0.628758E+02  0.816E-01    1.53       0.0  T
   2    -62.8836929 -0.789692E-02  0.528E-01    1.72       1.0  T
   3    -62.8912401 -0.754725E-02  0.269E-01    1.61       1.0  T
   4    -62.8917599 -0.519757E-03  0.968E-02    1.69       1.0  T
   5    -62.8917908 -0.309615E-04  0.463E-02    1.62       1.0  T
   6    -62.8919024 -0.111505E-03  0.117E-02    1.65       1.2  T
   7    -62.8919029 -0.578499E-06  0.726E-03    1.65       1.9  T
   8    -62.8919031 -0.212113E-06  0.287E-03    1.65       4.9  T
   9    -62.8919032 -0.392747E-07  0.132E-03    1.65      10.6  T
  10    -62.8919032 -0.302117E-07  0.391E-04    1.65      35.8  T
  11    -62.8919032 -0.145138E-08  0.169E-04    1.65      83.0  T
     SCC iter.                  ...        0 min,  0.169 sec
     gradient                   ...        0 min,  0.059 sec
 * total energy  :   -62.2544619 Eh     change       -0.2378053E+00 Eh
   gradient norm :     0.2673240 Eh/α   predicted    -0.2329034E+00 (  -2.06%)
   displ. norm   :     0.8950997 α      lambda       -0.2232346E+00
   maximum displ.:     0.6223234 α      in ANC's #57, #109, #100, ...

........................................................................
.............................. CYCLE    6 ..............................
........................................................................

 iter      E             dE          RMSdq      gap      omega  full diag
   1    -63.0391736 -0.630392E+02  0.928E-01    1.38       0.0  T
   2    -63.0290994  0.100741E-01  0.972E-01    1.79       1.0  T
   3    -63.0683813 -0.392819E-01  0.262E-01    1.44       1.0  T
   4    -63.0682696  0.111746E-03  0.123E-01    1.45       1.0  T
   5    -63.0684528 -0.183212E-03  0.289E-02    1.44       1.0  T
   6    -63.0684944 -0.416543E-04  0.113E-02    1.45       1.2  T
   7    -63.0684956 -0.118831E-05  0.514E-03    1.45       2.7  T
   8    -63.0684958 -0.164322E-06  0.171E-03    1.45       8.2  T
   9    -63.0684958 -0.727563E-08  0.912E-04    1.45      15.4  T
  10    -63.0684958 -0.139871E-07  0.322E-04    1.45      43.5  T
     SCC iter.                  ...        0 min,  0.184 sec
     gradient                   ...        0 min,  0.092 sec
 * total energy  :   -62.4557836 Eh     change       -0.2013216E+00 Eh
   gradient norm :     0.2259415 Eh/α   predicted    -0.2010453E+00 (  -0.14%)
   displ. norm   :     0.8782874 α      lambda       -0.1816897E+00
   maximum displ.:     0.6034680 α      in ANC's #57, #109, #100, ...

........................................................................
.............................. CYCLE    7 ..............................
........................................................................

 iter      E             dE          RMSdq      gap      omega  full diag
   1    -63.1964043 -0.631964E+02  0.801E-01    1.41       0.0  T
   2    -63.1705424  0.258620E-01  0.101E+00    1.69       1.0  T
   3    -63.2146859 -0.441435E-01  0.270E-01    1.38       1.0  T
   4    -63.2149015 -0.215589E-03  0.907E-02    1.38       1.0  T
   5    -63.2150289 -0.127411E-03  0.201E-02    1.38       1.0  T
   6    -63.2150415 -0.126042E-04  0.999E-03    1.39       1.4  T
   7    -63.2150418 -0.348276E-06  0.471E-03    1.39       3.0  T
   8    -63.2150420 -0.128372E-06  0.186E-03    1.39       7.5  T
   9    -63.2150420 -0.812711E-07  0.902E-04    1.39      15.5  T
  10    -63.2150420 -0.281536E-08  0.396E-04    1.39      35.3  T
     SCC iter.                  ...        0 min,  0.090 sec
     gradient                   ...        0 min,  0.095 sec
 * total energy  :   -62.6158978 Eh     change       -0.1601143E+00 Eh
   gradient norm :     0.1842782 Eh/α   predicted    -0.1609215E+00 (   0.50%)
   displ. norm   :     0.8410563 α      lambda       -0.1383334E+00
   maximum displ.:     0.5316168 α      in ANC's #57, #25, #101, ...

........................................................................
.............................. CYCLE    8 ..............................
........................................................................

 iter      E             dE          RMSdq      gap      omega  full diag
   1    -63.3258970 -0.633259E+02  0.655E-01    1.48       0.0  T
   2    -63.3056645  0.202325E-01  0.814E-01    1.60       1.0  T
   3    -63.3320943 -0.264298E-01  0.311E-01    1.43       1.0  T
   4    -63.3337048 -0.161045E-02  0.455E-02    1.44       1.0  T
   5    -63.3337196 -0.148192E-04  0.161E-02    1.44       1.0  T
   6    -63.3337235 -0.384093E-05  0.911E-03    1.44       1.5  T
   7    -63.3337237 -0.252670E-06  0.404E-03    1.44       3.5  T
   8    -63.3337238 -0.400548E-07  0.138E-03    1.44      10.1  T
   9    -63.3337238 -0.133635E-07  0.751E-04    1.44      18.6  T
  10    -63.3337238 -0.325405E-08  0.277E-04    1.44      50.6  T
     SCC iter.                  ...        0 min,  0.184 sec
     gradient                   ...        0 min,  0.092 sec
 * total energy  :   -62.7354004 Eh     change       -0.1195026E+00 Eh
   gradient norm :     0.1493759 Eh/α   predicted    -0.1180935E+00 (  -1.18%)
   displ. norm   :     0.8116537 α      lambda       -0.1018560E+00
   maximum displ.:     0.4335368 α      in ANC's #57, #25, #101, ...

........................................................................
.............................. CYCLE    9 ..............................
........................................................................

 iter      E             dE          RMSdq      gap      omega  full diag
   1    -63.4185915 -0.634186E+02  0.550E-01    1.61       0.0  T
   2    -63.4085195  0.100720E-01  0.592E-01    1.66       1.0  T
   3    -63.4185162 -0.999670E-02  0.336E-01    1.59       1.0  T
   4    -63.4215267 -0.301053E-02  0.245E-02    1.59       1.0  T
   5    -63.4215317 -0.502207E-05  0.125E-02    1.59       1.1  T
   6    -63.4215327 -0.967168E-06  0.758E-03    1.59       1.8  T
   7    -63.4215329 -0.209004E-06  0.281E-03    1.59       5.0  T
   8    -63.4215329 -0.271530E-07  0.120E-03    1.59      11.7  T
   9    -63.4215329 -0.806705E-08  0.619E-04    1.59      22.6  T
  10    -63.4215329 -0.191478E-08  0.225E-04    1.59      62.2  T
     SCC iter.                  ...        0 min,  0.121 sec
     gradient                   ...        0 min,  0.091 sec
 * total energy  :   -62.8215397 Eh     change       -0.8613931E-01 Eh
   gradient norm :     0.1223530 Eh/α   predicted    -0.8447846E-01 (  -1.93%)
   displ. norm   :     0.7866508 α      lambda       -0.7225625E-01
   maximum displ.:     0.3157642 α      in ANC's #57, #25, #34, ...

........................................................................
.............................. CYCLE   10 ..............................
........................................................................

 iter      E             dE          RMSdq      gap      omega  full diag
   1    -63.4840109 -0.634840E+02  0.439E-01    1.84       0.0  T
   2    -63.4809939  0.301704E-02  0.379E-01    1.86       1.0  T
   3    -63.4812060 -0.212155E-03  0.324E-01    1.84       1.0  T
   4    -63.4849325 -0.372649E-02  0.189E-02    1.84       1.0  T
   5    -63.4849339 -0.141534E-05  0.115E-02    1.84       1.2  T
   6    -63.4849343 -0.342119E-06  0.565E-03    1.84       2.5  T
   7    -63.4849345 -0.246134E-06  0.217E-03    1.84       6.4  T
   8    -63.4849346 -0.211023E-07  0.968E-04    1.84      14.5  T
   9    -63.4849346 -0.664771E-08  0.482E-04    1.84      29.0  T
     SCC iter.                  ...        0 min,  0.116 sec
     gradient                   ...        0 min,  0.059 sec
 * total energy  :   -62.8822193 Eh     change       -0.6067958E-01 Eh
   gradient norm :     0.1012683 Eh/α   predicted    -0.5848489E-01 (  -3.62%)
   displ. norm   :     0.7786688 α      lambda       -0.5298252E-01
   maximum displ.:     0.3418620 α      in ANC's #25, #24, #34, ...

........................................................................
.............................. CYCLE   11 ..............................
........................................................................

 iter      E             dE          RMSdq      gap      omega  full diag
   1    -63.5341668 -0.635342E+02  0.335E-01    2.18       0.0  T
   2    -63.5335517  0.615148E-03  0.240E-01    2.18       1.0  T
   3    -63.5314886  0.206305E-02  0.269E-01    2.19       1.0  T
   4    -63.5344694 -0.298080E-02  0.192E-02    2.18       1.0  T
   5    -63.5344701 -0.702856E-06  0.117E-02    2.18       1.2  T
   6    -63.5344707 -0.583037E-06  0.470E-03    2.18       3.0  T
   7    -63.5344709 -0.191892E-06  0.160E-03    2.18       8.7  T
   8    -63.5344709 -0.668510E-08  0.703E-04    2.18      19.9  T
   9    -63.5344709 -0.134058E-08  0.311E-04    2.18      45.0  T
     SCC iter.                  ...        0 min,  0.167 sec
     gradient                   ...        0 min,  0.063 sec
 * total energy  :   -62.9267935 Eh     change       -0.4457425E-01 Eh
   gradient norm :     0.0806954 Eh/α   predicted    -0.4255358E-01 (  -4.53%)
   displ. norm   :     0.7971602 α      lambda       -0.4110403E-01
   maximum displ.:     0.4019792 α      in ANC's #25, #23, #24, ...

........................................................................
.............................. CYCLE   12 ..............................
........................................................................

 iter      E             dE          RMSdq      gap      omega  full diag
   1    -63.5785314 -0.635785E+02  0.251E-01    2.61       0.0  T
   2    -63.5784755  0.558881E-04  0.159E-01    2.61       1.0  T
   3    -63.5773048  0.117066E-02  0.174E-01    2.61       1.0  T
   4    -63.5786344 -0.132957E-02  0.177E-02    2.61       1.0  T
   5    -63.5786349 -0.497212E-06  0.128E-02    2.61       1.1  T
   6    -63.5786357 -0.785895E-06  0.369E-03    2.61       3.8  T
   7    -63.5786358 -0.927851E-07  0.126E-03    2.61      11.1  T
   8    -63.5786358 -0.686301E-08  0.739E-04    2.61      19.0  T
   9    -63.5786358 -0.885500E-09  0.251E-04    2.61      55.8  T
     SCC iter.                  ...        0 min,  0.076 sec
     gradient                   ...        0 min,  0.055 sec
 * total energy  :   -62.9619663 Eh     change       -0.3517274E-01 Eh
   gradient norm :     0.0914716 Eh/α   predicted    -0.3361209E-01 (  -4.44%)
   displ. norm   :     0.8056331 α      lambda       -0.3711829E-01
   maximum displ.:     0.3911037 α      in ANC's #25, #23, #24, ...

........................................................................
.............................. CYCLE   13 ..............................
........................................................................

 iter      E             dE          RMSdq      gap      omega  full diag
   1    -63.6185671 -0.636186E+02  0.229E-01    3.13       0.0  T
   2    -63.6186028 -0.356981E-04  0.138E-01    3.13       1.0  T
   3    -63.6182077  0.395117E-03  0.103E-01    3.13       1.0  T
   4    -63.6186545 -0.446780E-03  0.168E-02    3.12       1.0  T
   5    -63.6186561 -0.156053E-05  0.113E-02    3.12       1.2  T
   6    -63.6186566 -0.569374E-06  0.397E-03    3.12       3.5  T
   7    -63.6186567 -0.680372E-07  0.110E-03    3.12      12.7  T
   8    -63.6186567 -0.124672E-07  0.566E-04    3.12      24.7  T
   9    -63.6186567 -0.722899E-09  0.277E-04    3.12      50.5  T
     SCC iter.                  ...        0 min,  0.074 sec
     gradient                   ...        0 min,  0.054 sec
 * total energy  :   -62.9942528 Eh     change       -0.3228650E-01 Eh
   gradient norm :     0.1233421 Eh/α   predicted    -0.3060491E-01 (  -5.21%)
   displ. norm   :     0.8511211 α      lambda       -0.4212298E-01
   maximum displ.:     0.4168080 α      in ANC's #25, #23, #24, ...

........................................................................
.............................. CYCLE   14 ..............................
........................................................................

 iter      E             dE          RMSdq      gap      omega  full diag
   1    -63.6478315 -0.636478E+02  0.290E-01    3.70       0.0  T
   2    -63.6479045 -0.730009E-04  0.173E-01    3.67       1.0  T
   3    -63.6477755  0.128965E-03  0.650E-02    3.67       1.0  T
   4    -63.6479266 -0.151081E-03  0.156E-02    3.66       1.0  T
   5    -63.6479287 -0.210344E-05  0.108E-02    3.67       1.3  T
   6    -63.6479292 -0.559622E-06  0.428E-03    3.67       3.3  T
   7    -63.6479293 -0.945994E-07  0.948E-04    3.67      14.8  T
   8    -63.6479293 -0.857452E-08  0.453E-04    3.67      30.9  T
     SCC iter.                  ...        0 min,  0.156 sec
     gradient                   ...        0 min,  0.094 sec
 * total energy  :   -63.0308037 Eh     change       -0.3655094E-01 Eh
   gradient norm :     0.1215997 Eh/α   predicted    -0.3631859E-01 (  -0.64%)
   displ. norm   :     0.8034229 α      lambda       -0.4482829E-01
   maximum displ.:     0.3157248 α      in ANC's #25, #24, #23, ...

........................................................................
.............................. CYCLE   15 ..............................
........................................................................

 iter      E             dE          RMSdq      gap      omega  full diag
   1    -63.6875204 -0.636875E+02  0.335E-01    4.04       0.0  T
   2    -63.6876333 -0.112875E-03  0.196E-01    3.99       1.0  T
   3    -63.6876115  0.217859E-04  0.475E-02    4.00       1.0  T
   4    -63.6876543 -0.428058E-04  0.187E-02    3.99       1.0  T
   5    -63.6876544 -0.133710E-06  0.133E-02    3.99       1.1  T
   6    -63.6876554 -0.100023E-05  0.402E-03    3.99       3.5  T
   7    -63.6876556 -0.114383E-06  0.889E-04    3.99      15.8  T
   8    -63.6876556 -0.575306E-08  0.473E-04    3.99      29.6  T
     SCC iter.                  ...        0 min,  0.080 sec
     gradient                   ...        0 min,  0.052 sec
 * total energy  :   -63.0667598 Eh     change       -0.3595604E-01 Eh
   gradient norm :     0.0960570 Eh/α   predicted    -0.3688222E-01 (   2.58%)
   displ. norm   :     0.8288407 α      lambda       -0.3735891E-01
   maximum displ.:     0.3647280 α      in ANC's #25, #24, #57, ...

........................................................................
.............................. CYCLE   16 ..............................
........................................................................

 iter      E             dE          RMSdq      gap      omega  full diag
   1    -63.7075851 -0.637076E+02  0.237E-01    4.09       0.0  T
   2    -63.7076566 -0.715540E-04  0.142E-01    4.06       1.0  T
   3    -63.7076635 -0.688772E-05  0.361E-02    4.08       1.0  T
   4    -63.7076683 -0.477257E-05  0.201E-02    4.07       1.0  T
   5    -63.7076686 -0.339746E-06  0.728E-03    4.08       1.9  T
   6    -63.7076689 -0.245797E-06  0.165E-03    4.07       8.5  T
   7    -63.7076689 -0.283078E-07  0.819E-04    4.07      17.1  T
   8    -63.7076689 -0.363116E-08  0.424E-04    4.07      33.0  T
     SCC iter.                  ...        0 min,  0.098 sec
     gradient                   ...        0 min,  0.062 sec
 * total energy  :   -63.0967935 Eh     change       -0.3003373E-01 Eh
   gradient norm :     0.0883581 Eh/α   predicted    -0.3151185E-01 (   4.92%)
   displ. norm   :     0.7632749 α      lambda       -0.2985697E-01
   maximum displ.:     0.3961054 α      in ANC's #25, #23, #24, ...

........................................................................
.............................. CYCLE   17 ..............................
........................................................................

 iter      E             dE          RMSdq      gap      omega  full diag
   1    -63.7473369 -0.637473E+02  0.209E-01    4.23       0.0  T
   2    -63.7473782 -0.412271E-04  0.127E-01    4.19       1.0  T
   3    -63.7473820 -0.382480E-05  0.532E-02    4.21       1.0  T
   4    -63.7473864 -0.443655E-05  0.411E-02    4.21       1.0  T
   5    -63.7473875 -0.110835E-05  0.447E-03    4.21       3.1  T
   6    -63.7473877 -0.214267E-06  0.145E-03    4.21       9.7  T
   7    -63.7473878 -0.960522E-08  0.761E-04    4.21      18.4  T
   8    -63.7473878 -0.211276E-08  0.313E-04    4.21      44.7  T
     SCC iter.                  ...        0 min,  0.148 sec
     gradient                   ...        0 min,  0.093 sec
 * total energy  :   -63.1212374 Eh     change       -0.2444390E-01 Eh
   gradient norm :     0.0743379 Eh/α   predicted    -0.2362565E-01 (  -3.35%)
   displ. norm   :     0.7548444 α      lambda       -0.2765777E-01
   maximum displ.:     0.3874693 α      in ANC's #25, #24, #23, ...

........................................................................
.............................. CYCLE   18 ..............................
........................................................................

 iter      E             dE          RMSdq      gap      omega  full diag
   1    -63.7885851 -0.637886E+02  0.234E-01    4.50       0.0  T
   2    -63.7886625 -0.773448E-04  0.135E-01    4.46       1.0  T
   3    -63.7886625  0.347941E-08  0.544E-02    4.48       1.0  T
   4    -63.7886714 -0.890884E-05  0.336E-02    4.47       1.0  T
   5    -63.7886716 -0.225394E-06  0.563E-03    4.48       2.5  T
   6    -63.7886722 -0.573006E-06  0.142E-03    4.48       9.9  T
   7    -63.7886722 -0.109721E-07  0.625E-04    4.48      22.4  T
   8    -63.7886722 -0.147045E-08  0.308E-04    4.48      45.5  T
     SCC iter.                  ...        0 min,  0.109 sec
     gradient                   ...        0 min,  0.092 sec
 * total energy  :   -63.1427585 Eh     change       -0.2152113E-01 Eh
   gradient norm :     0.0612574 Eh/α   predicted    -0.2170837E-01 (   0.87%)
   displ. norm   :     0.8210647 α      lambda       -0.2404571E-01
   maximum displ.:     0.3895409 α      in ANC's #25, #23, #45, ...

........................................................................
.............................. CYCLE   19 ..............................
........................................................................

 iter      E             dE          RMSdq      gap      omega  full diag
   1    -63.8170339 -0.638170E+02  0.221E-01    4.79       0.0  T
   2    -63.8170757 -0.417792E-04  0.131E-01    4.75       1.0  T
   3    -63.8170776 -0.187304E-05  0.351E-02    4.77       1.0  T
   4    -63.8170822 -0.460889E-05  0.227E-02    4.76       1.0  T
   5    -63.8170826 -0.452466E-06  0.304E-03    4.76       4.6  T
   6    -63.8170827 -0.414855E-07  0.703E-04    4.76      19.9  T
   7    -63.8170827 -0.316354E-08  0.355E-04    4.76      39.5  T
     SCC iter.                  ...        0 min,  0.096 sec
     gradient                   ...        0 min,  0.091 sec
 * total energy  :   -63.1585179 Eh     change       -0.1575940E-01 Eh
   gradient norm :     0.0727845 Eh/α   predicted    -0.2012804E-01 (  27.72%)
   displ. norm   :     0.7733662 α      lambda       -0.2204747E-01
   maximum displ.:     0.3762596 α      in ANC's #24, #25, #19, ...

........................................................................
.............................. CYCLE   20 ..............................
........................................................................

 iter      E             dE          RMSdq      gap      omega  full diag
   1    -63.8313808 -0.638314E+02  0.225E-01    5.04       0.0  T
   2    -63.8314300 -0.492033E-04  0.131E-01    5.02       1.0  T
   3    -63.8314303 -0.317447E-06  0.264E-02    5.02       1.0  T
   4    -63.8314361 -0.576076E-05  0.129E-02    5.02       1.1  T
   5    -63.8314362 -0.971492E-07  0.431E-03    5.02       3.2  T
   6    -63.8314362 -0.506604E-07  0.900E-04    5.02      15.6  T
   7    -63.8314362 -0.101961E-07  0.323E-04    5.02      43.4  T
     SCC iter.                  ...        0 min,  0.101 sec
     gradient                   ...        0 min,  0.049 sec
 * total energy  :   -63.1734037 Eh     change       -0.1488573E-01 Eh
   gradient norm :     0.0574052 Eh/α   predicted    -0.1761700E-01 (  18.35%)
   displ. norm   :     0.7603785 α      lambda       -0.1780201E-01
   maximum displ.:     0.3200049 α      in ANC's #18, #25, #23, ...
 * RMSD in coord.:     1.5940544 α      energy gain  -0.2399248E+01 Eh

generating ANC from exact Hessian ...
Using Lindh-Hessian (1995)
 Shifting diagonal of input Hessian by    1.0648720205622996E-002
 Lowest  eigenvalues of input Hessian
    0.010000    0.010304    0.010408    0.010447    0.010470    0.000000
    0.000000    0.000000    0.000000    0.000000    0.000000    0.010735
    0.010958    0.011014    0.011057    0.011111    0.011146    0.011363
 Highest eigenvalues
    1.387700    1.406282    1.410776    1.414749    1.415856    1.421027


........................................................................
.............................. CYCLE   21 ..............................
........................................................................

 iter      E             dE          RMSdq      gap      omega  full diag
   1    -63.8370286 -0.638370E+02  0.256E-01    5.29       0.0  T
   2    -63.8370890 -0.603706E-04  0.144E-01    5.25       1.0  T
   3    -63.8370925 -0.352598E-05  0.307E-02    5.26       1.0  T
   4    -63.8370965 -0.391431E-05  0.117E-02    5.26       1.2  T
   5    -63.8370965 -0.489854E-07  0.528E-03    5.26       2.7  T
   6    -63.8370966 -0.809648E-07  0.859E-04    5.26      16.3  T
   7    -63.8370966 -0.534043E-08  0.372E-04    5.26      37.7  T
     SCC iter.                  ...        0 min,  0.150 sec
     gradient                   ...        0 min,  0.097 sec
 * total energy  :   -63.1814696 Eh     change       -0.8065900E-02 Eh
   gradient norm :     0.0705497 Eh/α   predicted     0.0000000E+00 (-100.00%)
   displ. norm   :     0.5537681 α      lambda       -0.1562989E-01
   maximum displ.:     0.2753172 α      in ANC's #32, #26, #34, ...

........................................................................
.............................. CYCLE   22 ..............................
........................................................................

 iter      E             dE          RMSdq      gap      omega  full diag
   1    -63.8553946 -0.638554E+02  0.159E-01    5.31       0.0  T
   2    -63.8554110 -0.163199E-04  0.929E-02    5.32       1.0  T
   3    -63.8554157 -0.477464E-05  0.118E-02    5.31       1.2  T
   4    -63.8554161 -0.396946E-06  0.618E-03    5.31       2.3  T
   5    -63.8554162 -0.484720E-07  0.176E-03    5.31       8.0  T
   6    -63.8554162 -0.141483E-07  0.565E-04    5.31      24.8  T
   7    -63.8554162 -0.125779E-08  0.165E-04    5.31      84.7  T
     SCC iter.                  ...        0 min,  0.135 sec
     gradient                   ...        0 min,  0.057 sec
 * total energy  :   -63.1939253 Eh     change       -0.1245570E-01 Eh
   gradient norm :     0.0299474 Eh/α   predicted    -0.1021211E-01 ( -18.01%)
   displ. norm   :     0.7364969 α      lambda       -0.1196547E-01
   maximum displ.:     0.4020471 α      in ANC's #32, #34, #26, ...

........................................................................
.............................. CYCLE   23 ..............................
........................................................................

 iter      E             dE          RMSdq      gap      omega  full diag
   1    -63.8737653 -0.638738E+02  0.156E-01    5.35       0.0  T
   2    -63.8737799 -0.145462E-04  0.917E-02    5.37       1.0  T
   3    -63.8737820 -0.216889E-05  0.958E-03    5.37       1.5  T
   4    -63.8737827 -0.695341E-06  0.482E-03    5.37       2.9  T
   5    -63.8737828 -0.414362E-07  0.145E-03    5.37       9.7  T
   6    -63.8737828 -0.645255E-08  0.505E-04    5.37      27.7  T
   7    -63.8737828 -0.100319E-08  0.167E-04    5.37      83.8  T
     SCC iter.                  ...        0 min,  0.074 sec
     gradient                   ...        0 min,  0.094 sec
 * total energy  :   -63.2030004 Eh     change       -0.9075134E-02 Eh
   gradient norm :     0.0265604 Eh/α   predicted    -0.9227944E-02 (   1.68%)
   displ. norm   :     0.7559592 α      lambda       -0.8517136E-02
   maximum displ.:     0.3659748 α      in ANC's #32, #26, #29, ...

........................................................................
.............................. CYCLE   24 ..............................
........................................................................

 iter      E             dE          RMSdq      gap      omega  full diag
   1    -63.8731386 -0.638731E+02  0.187E-01    5.44       0.0  T
   2    -63.8731884 -0.498641E-04  0.109E-01    5.45       1.0  T
   3    -63.8731996 -0.111258E-04  0.187E-02    5.44       1.0  T
   4    -63.8732011 -0.149017E-05  0.805E-03    5.44       1.7  T
   5    -63.8732012 -0.164157E-06  0.377E-03    5.44       3.7  T
   6    -63.8732013 -0.472719E-07  0.816E-04    5.44      17.2  T
   7    -63.8732013 -0.205186E-08  0.324E-04    5.44      43.3  T
     SCC iter.                  ...        0 min,  0.194 sec
     gradient                   ...        0 min,  0.103 sec
 * total energy  :   -63.2080568 Eh     change       -0.5056430E-02 Eh
   gradient norm :     0.0585118 Eh/α   predicted    -0.6692243E-02 (  32.35%)
   displ. norm   :     0.6595885 α      lambda       -0.1057904E-01
   maximum displ.:     0.3364479 α      in ANC's #32, #16, #28, ...

........................................................................
.............................. CYCLE   25 ..............................
........................................................................

 iter      E             dE          RMSdq      gap      omega  full diag
   1    -63.8914807 -0.638915E+02  0.153E-01    5.45       0.0  T
   2    -63.8915011 -0.204047E-04  0.921E-02    5.48       1.0  T
   3    -63.8915048 -0.369937E-05  0.959E-03    5.47       1.5  T
   4    -63.8915063 -0.150196E-05  0.508E-03    5.48       2.8  T
   5    -63.8915064 -0.435405E-07  0.174E-03    5.48       8.0  T
   6    -63.8915064 -0.506304E-08  0.562E-04    5.48      24.9  T
   7    -63.8915064 -0.138618E-08  0.220E-04    5.48      63.5  T
     SCC iter.                  ...        0 min,  0.323 sec
     gradient                   ...        0 min,  0.097 sec
 * total energy  :   -63.2143368 Eh     change       -0.6280012E-02 Eh
   gradient norm :     0.0231158 Eh/α   predicted    -0.7590766E-02 (  20.87%)
   displ. norm   :     0.6885112 α      lambda       -0.4973758E-02
   maximum displ.:     0.2717893 α      in ANC's #26, #32, #29, ...

........................................................................
.............................. CYCLE   26 ..............................
........................................................................

 iter      E             dE          RMSdq      gap      omega  full diag
   1    -63.8974110 -0.638974E+02  0.930E-02    5.57       0.0  T
   2    -63.8974425 -0.315109E-04  0.550E-02    5.58       1.0  T
   3    -63.8974476 -0.507565E-05  0.163E-02    5.58       1.0  T
   4    -63.8974484 -0.813926E-06  0.100E-02    5.58       1.4  T
   5    -63.8974486 -0.151520E-06  0.486E-03    5.58       2.9  T
   6    -63.8974486 -0.587146E-07  0.649E-04    5.58      21.6  T
   7    -63.8974486 -0.124295E-08  0.334E-04    5.58      41.9  T
     SCC iter.                  ...        0 min,  1.189 sec
     gradient                   ...        0 min,  0.131 sec
 * total energy  :   -63.2184831 Eh     change       -0.4146246E-02 Eh
   gradient norm :     0.0178108 Eh/α   predicted    -0.3665779E-02 ( -11.59%)
   displ. norm   :     0.6823448 α      lambda       -0.4344637E-02
   maximum displ.:     0.2897292 α      in ANC's #29, #26, #16, ...

........................................................................
.............................. CYCLE   27 ..............................
........................................................................

 iter      E             dE          RMSdq      gap      omega  full diag
   1    -63.9053319 -0.639053E+02  0.101E-01    5.75       0.0  T
   2    -63.9053888 -0.568929E-04  0.585E-02    5.75       1.0  T
   3    -63.9053984 -0.954719E-05  0.210E-02    5.75       1.0  T
   4    -63.9053994 -0.987205E-06  0.128E-02    5.74       1.1  T
   5    -63.9053995 -0.114181E-06  0.498E-03    5.74       2.8  T
   6    -63.9053996 -0.100591E-06  0.785E-04    5.74      17.8  T
   7    -63.9053996 -0.115750E-08  0.463E-04    5.74      30.2  T
     SCC iter.                  ...        0 min,  0.863 sec
     gradient                   ...        0 min,  0.090 sec
 * total energy  :   -63.2214127 Eh     change       -0.2929636E-02 Eh
   gradient norm :     0.0134625 Eh/α   predicted    -0.3183741E-02 (   8.67%)
   displ. norm   :     0.5402044 α      lambda       -0.2054181E-02
   maximum displ.:     0.2239497 α      in ANC's #29, #27, #28, ...

........................................................................
.............................. CYCLE   28 ..............................
........................................................................

 iter      E             dE          RMSdq      gap      omega  full diag
   1    -63.9017153 -0.639017E+02  0.119E-01    5.85       0.0  T
   2    -63.9017431 -0.277184E-04  0.701E-02    5.85       1.0  T
   3    -63.9017474 -0.432019E-05  0.228E-02    5.84       1.0  T
   4    -63.9017481 -0.686332E-06  0.157E-02    5.84       1.0  T
   5    -63.9017483 -0.209771E-06  0.520E-03    5.84       2.7  T
   6    -63.9017483 -0.557894E-07  0.718E-04    5.84      19.5  T
   7    -63.9017483 -0.196961E-08  0.398E-04    5.84      35.2  T
     SCC iter.                  ...        0 min,  1.018 sec
     gradient                   ...        0 min,  0.091 sec
 * total energy  :   -63.2226678 Eh     change       -0.1255109E-02 Eh
   gradient norm :     0.0176598 Eh/α   predicted    -0.1326821E-02 (   5.71%)
   displ. norm   :     0.4673839 α      lambda       -0.1647754E-02
   maximum displ.:     0.1888644 α      in ANC's #10, #28, #29, ...

........................................................................
.............................. CYCLE   29 ..............................
........................................................................

 iter      E             dE          RMSdq      gap      omega  full diag
   1    -63.9064611 -0.639065E+02  0.100E-01    5.87       0.0  T
   2    -63.9064723 -0.111629E-04  0.583E-02    5.87       1.0  T
   3    -63.9064738 -0.150904E-05  0.112E-02    5.87       1.3  T
   4    -63.9064740 -0.246394E-06  0.704E-03    5.87       2.0  T
   5    -63.9064741 -0.174404E-07  0.256E-03    5.87       5.5  T
   6    -63.9064741 -0.192189E-07  0.430E-04    5.87      32.5  T
   7    -63.9064741 -0.175072E-08  0.215E-04    5.87      65.0  T
     SCC iter.                  ...        0 min,  0.202 sec
     gradient                   ...        0 min,  0.089 sec
 * total energy  :   -63.2238272 Eh     change       -0.1159420E-02 Eh
   gradient norm :     0.0093656 Eh/α   predicted    -0.1003852E-02 ( -13.42%)
   displ. norm   :     0.5286340 α      lambda       -0.1350075E-02
   maximum displ.:     0.2497163 α      in ANC's #4, #10, #6, ...

........................................................................
.............................. CYCLE   30 ..............................
........................................................................

 iter      E             dE          RMSdq      gap      omega  full diag
   1    -63.9089556 -0.639090E+02  0.106E-01    5.83       0.0  T
   2    -63.9089628 -0.720158E-05  0.627E-02    5.83       1.0  T
   3    -63.9089640 -0.124936E-05  0.102E-02    5.83       1.4  T
   4    -63.9089643 -0.242322E-06  0.659E-03    5.83       2.1  T
   5    -63.9089643 -0.650706E-08  0.191E-03    5.83       7.3  T
   6    -63.9089643 -0.117800E-07  0.324E-04    5.83      43.2  T
   7    -63.9089643 -0.457092E-09  0.184E-04    5.83      75.9  T
     SCC iter.                  ...        0 min,  0.406 sec
     gradient                   ...        0 min,  0.100 sec
 * total energy  :   -63.2246719 Eh     change       -0.8446110E-03 Eh
   gradient norm :     0.0195074 Eh/α   predicted    -0.8636801E-03 (   2.26%)
   displ. norm   :     0.5712032 α      lambda       -0.1568159E-02
   maximum displ.:     0.2318457 α      in ANC's #4, #10, #5, ...

........................................................................
.............................. CYCLE   31 ..............................
........................................................................

 iter      E             dE          RMSdq      gap      omega  full diag
   1    -63.9063920 -0.639064E+02  0.115E-01    5.75       0.0  T
   2    -63.9063973 -0.530542E-05  0.672E-02    5.76       1.0  T
   3    -63.9063988 -0.141735E-05  0.851E-03    5.76       1.6  T
   4    -63.9063989 -0.160347E-06  0.590E-03    5.76       2.4  T
   5    -63.9063990 -0.331623E-07  0.188E-03    5.76       7.5  T
   6    -63.9063990 -0.112953E-07  0.287E-04    5.76      48.8  T
   7    -63.9063990 -0.403269E-09  0.166E-04    5.76      84.1  T
     SCC iter.                  ...        0 min,  0.259 sec
     gradient                   ...        0 min,  0.090 sec
 * total energy  :   -63.2254034 Eh     change       -0.7315477E-03 Eh
   gradient norm :     0.0168620 Eh/α   predicted    -0.1039903E-02 (  42.15%)
   displ. norm   :     0.3425984 α      lambda       -0.8709003E-03
   maximum displ.:     0.2117837 α      in ANC's #4, #6, #10, ...

........................................................................
.............................. CYCLE   32 ..............................
........................................................................

 iter      E             dE          RMSdq      gap      omega  full diag
   1    -63.9054257 -0.639054E+02  0.572E-02    5.74       0.0  T
   2    -63.9054276 -0.187748E-05  0.340E-02    5.74       1.0  T
   3    -63.9054280 -0.478593E-06  0.384E-03    5.74       3.6  T
   4    -63.9054281 -0.708330E-07  0.253E-03    5.74       5.5  T
   5    -63.9054281 -0.850613E-08  0.127E-03    5.74      11.0  T
   6    -63.9054281 -0.226473E-08  0.184E-04    5.74      76.2  T
   7    -63.9054281 -0.128175E-09  0.102E-04    5.74     136.7  T
     SCC iter.                  ...        0 min,  0.222 sec
     gradient                   ...        0 min,  0.093 sec
 * total energy  :   -63.2260415 Eh     change       -0.6380550E-03 Eh
   gradient norm :     0.0124259 Eh/α   predicted    -0.4865629E-03 ( -23.74%)
   displ. norm   :     0.4858675 α      lambda       -0.1369432E-02
   maximum displ.:     0.3001602 α      in ANC's #4, #6, #32, ...

........................................................................
.............................. CYCLE   33 ..............................
........................................................................

 iter      E             dE          RMSdq      gap      omega  full diag
   1    -63.9108811 -0.639109E+02  0.925E-02    5.77       0.0  T
   2    -63.9108968 -0.157098E-04  0.545E-02    5.75       1.0  T
   3    -63.9108980 -0.123030E-05  0.826E-03    5.76       1.7  T
   4    -63.9108988 -0.837576E-06  0.396E-03    5.76       3.5  T
   5    -63.9108989 -0.268968E-07  0.259E-03    5.76       5.4  T
   6    -63.9108989 -0.417941E-08  0.248E-04    5.76      56.5  T
   7    -63.9108989 -0.219188E-09  0.980E-05    5.76     142.9  T
     SCC iter.                  ...        0 min,  0.218 sec
     gradient                   ...        0 min,  0.097 sec
 * total energy  :   -63.2265961 Eh     change       -0.5546479E-03 Eh
   gradient norm :     0.0236447 Eh/α   predicted    -0.8463573E-03 (  52.59%)
   displ. norm   :     0.3909597 α      lambda       -0.1017612E-02
   maximum displ.:     0.2101744 α      in ANC's #4, #3, #5, ...

........................................................................
.............................. CYCLE   34 ..............................
........................................................................

 iter      E             dE          RMSdq      gap      omega  full diag
   1    -63.9096929 -0.639097E+02  0.722E-02    5.78       0.0  T
   2    -63.9096957 -0.282397E-05  0.425E-02    5.77       1.0  T
   3    -63.9096967 -0.921710E-06  0.461E-03    5.77       3.0  T
   4    -63.9096968 -0.992450E-07  0.262E-03    5.77       5.3  T
   5    -63.9096968 -0.149867E-07  0.128E-03    5.77      10.9  T
   6    -63.9096968 -0.227849E-08  0.224E-04    5.77      62.6  T
   7    -63.9096968 -0.521823E-10  0.955E-05    5.77     146.6  T
     SCC iter.                  ...        0 min,  0.140 sec
     gradient                   ...        0 min,  0.094 sec
 * total energy  :   -63.2272720 Eh     change       -0.6759291E-03 Eh
   gradient norm :     0.0176567 Eh/α   predicted    -0.5865816E-03 ( -13.22%)
   displ. norm   :     0.5221180 α      lambda       -0.1170179E-02
   maximum displ.:     0.2597816 α      in ANC's #4, #3, #5, ...

........................................................................
.............................. CYCLE   35 ..............................
........................................................................

 iter      E             dE          RMSdq      gap      omega  full diag
   1    -63.9072490 -0.639072E+02  0.957E-02    5.84       0.0  T
   2    -63.9072540 -0.492338E-05  0.553E-02    5.84       1.0  T
   3    -63.9072553 -0.137123E-05  0.691E-03    5.84       2.0  T
   4    -63.9072555 -0.172082E-06  0.418E-03    5.84       3.3  T
   5    -63.9072555 -0.278941E-07  0.161E-03    5.84       8.7  T
   6    -63.9072555 -0.548926E-08  0.296E-04    5.84      47.4  T
   7    -63.9072555 -0.136303E-09  0.176E-04    5.84      79.5  T
     SCC iter.                  ...        0 min,  0.058 sec
     gradient                   ...        0 min,  0.051 sec
 * total energy  :   -63.2278894 Eh     change       -0.6174080E-03 Eh
   gradient norm :     0.0236882 Eh/α   predicted    -0.7445914E-03 (  20.60%)
   displ. norm   :     0.4837223 α      lambda       -0.1353446E-02
   maximum displ.:     0.2179195 α      in ANC's #4, #3, #36, ...

........................................................................
.............................. CYCLE   36 ..............................
........................................................................

 iter      E             dE          RMSdq      gap      omega  full diag
   1    -63.9084108 -0.639084E+02  0.702E-02    5.95       0.0  T
   2    -63.9084178 -0.701227E-05  0.425E-02    5.94       1.0  T
   3    -63.9084186 -0.833108E-06  0.984E-03    5.94       1.4  T
   4    -63.9084189 -0.273727E-06  0.603E-03    5.94       2.3  T
   5    -63.9084189 -0.343317E-07  0.135E-03    5.94      10.4  T
   6    -63.9084189 -0.823174E-08  0.291E-04    5.94      48.1  T
   7    -63.9084189 -0.111193E-09  0.165E-04    5.94      85.1  T
     SCC iter.                  ...        0 min,  0.075 sec
     gradient                   ...        0 min,  0.049 sec
 * total energy  :   -63.2289381 Eh     change       -0.1048661E-02 Eh
   gradient norm :     0.0168784 Eh/α   predicted    -0.8350675E-03 ( -20.37%)
   displ. norm   :     0.6468974 α      lambda       -0.1622348E-02
   maximum displ.:     0.2897855 α      in ANC's #4, #36, #39, ...

........................................................................
.............................. CYCLE   37 ..............................
........................................................................

 iter      E             dE          RMSdq      gap      omega  full diag
   1    -63.9100806 -0.639101E+02  0.857E-02    6.09       0.0  T
   2    -63.9100932 -0.126718E-04  0.521E-02    6.07       1.0  T
   3    -63.9100940 -0.726683E-06  0.814E-03    6.08       1.7  T
   4    -63.9100945 -0.520234E-06  0.483E-03    6.07       2.9  T
   5    -63.9100945 -0.170625E-07  0.180E-03    6.07       7.8  T
   6    -63.9100945 -0.241211E-08  0.190E-04    6.07      73.7  T
   7    -63.9100945 -0.194355E-09  0.760E-05    6.07     184.2  T
     SCC iter.                  ...        0 min,  0.132 sec
     gradient                   ...        0 min,  0.096 sec
 * total energy  :   -63.2302957 Eh     change       -0.1357610E-02 Eh
   gradient norm :     0.0143826 Eh/α   predicted    -0.1150631E-02 ( -15.25%)
   displ. norm   :     0.7796841 α      lambda       -0.1699881E-02
   maximum displ.:     0.3637212 α      in ANC's #4, #36, #3, ...

........................................................................
.............................. CYCLE   38 ..............................
........................................................................

 iter      E             dE          RMSdq      gap      omega  full diag
   1    -63.9087406 -0.639087E+02  0.928E-02    6.20       0.0  T
   2    -63.9087507 -0.100717E-04  0.562E-02    6.18       1.0  T
   3    -63.9087514 -0.651329E-06  0.545E-03    6.19       2.6  T
   4    -63.9087517 -0.398203E-06  0.324E-03    6.18       4.3  T
   5    -63.9087518 -0.117945E-07  0.170E-03    6.18       8.2  T
   6    -63.9087518 -0.834341E-09  0.225E-04    6.18      62.1  T
   7    -63.9087518 -0.224802E-09  0.820E-05    6.18     170.8  T
     SCC iter.                  ...        0 min,  0.059 sec
     gradient                   ...        0 min,  0.094 sec
 * total energy  :   -63.2317826 Eh     change       -0.1486877E-02 Eh
   gradient norm :     0.0220421 Eh/α   predicted    -0.1366631E-02 (  -8.09%)
   displ. norm   :     0.6737930 α      lambda       -0.2212424E-02
   maximum displ.:     0.2265675 α      in ANC's #36, #4, #39, ...

........................................................................
.............................. CYCLE   39 ..............................
........................................................................

 iter      E             dE          RMSdq      gap      omega  full diag
   1    -63.9263980 -0.639264E+02  0.113E-01    6.39       0.0  T
   2    -63.9264144 -0.163355E-04  0.682E-02    6.37       1.0  T
   3    -63.9264159 -0.156892E-05  0.922E-03    6.37       1.5  T
   4    -63.9264164 -0.470295E-06  0.589E-03    6.37       2.4  T
   5    -63.9264164 -0.179271E-07  0.188E-03    6.37       7.5  T
   6    -63.9264164 -0.728294E-08  0.495E-04    6.37      28.3  T
   7    -63.9264164 -0.792333E-09  0.195E-04    6.37      71.9  T
     SCC iter.                  ...        0 min,  0.059 sec
     gradient                   ...        0 min,  0.094 sec
 * total energy  :   -63.2327245 Eh     change       -0.9418692E-03 Eh
   gradient norm :     0.0320232 Eh/α   predicted    -0.1608427E-02 (  70.77%)
   displ. norm   :     0.6335322 α      lambda       -0.2615368E-02
   maximum displ.:     0.3256174 α      in ANC's #4, #36, #39, ...

........................................................................
.............................. CYCLE   40 ..............................
........................................................................

 iter      E             dE          RMSdq      gap      omega  full diag
   1    -63.9123169 -0.639123E+02  0.100E-01    6.35       0.0  T
   2    -63.9123277 -0.107858E-04  0.594E-02    6.36       1.0  T
   3    -63.9123292 -0.155467E-05  0.849E-03    6.36       1.6  T
   4    -63.9123294 -0.178409E-06  0.328E-03    6.36       4.3  T
   5    -63.9123294 -0.133185E-07  0.130E-03    6.36      10.8  T
   6    -63.9123294 -0.361739E-08  0.393E-04    6.36      35.7  T
   7    -63.9123294 -0.423093E-09  0.139E-04    6.36     100.7  T
     SCC iter.                  ...        0 min,  0.097 sec
     gradient                   ...        0 min,  0.084 sec
 * total energy  :   -63.2342185 Eh     change       -0.1494017E-02 Eh
   gradient norm :     0.0248071 Eh/α   predicted    -0.1832537E-02 (  22.66%)
   displ. norm   :     0.4869751 α      lambda       -0.2002724E-02
   maximum displ.:     0.2422757 α      in ANC's #4, #36, #3, ...

........................................................................
.............................. CYCLE   41 ..............................
........................................................................

 iter      E             dE          RMSdq      gap      omega  full diag
   1    -63.9079899 -0.639080E+02  0.122E-01    6.30       0.0  T
   2    -63.9079953 -0.544154E-05  0.725E-02    6.31       1.0  T
   3    -63.9079976 -0.226194E-05  0.931E-03    6.31       1.5  T
   4    -63.9079977 -0.126522E-06  0.548E-03    6.31       2.6  T
   5    -63.9079977 -0.329395E-07  0.929E-04    6.31      15.1  T
   6    -63.9079977 -0.437078E-08  0.394E-04    6.31      35.5  T
     SCC iter.                  ...        0 min,  0.069 sec
     gradient                   ...        0 min,  0.097 sec
 * total energy  :   -63.2345168 Eh     change       -0.2982929E-03 Eh
   gradient norm :     0.0374587 Eh/α   predicted    -0.1238834E-02 ( 315.31%)
   displ. norm   :     0.3310068 α      lambda       -0.2397413E-02
   maximum displ.:     0.1484871 α      in ANC's #4, #7, #5, ...

........................................................................
.............................. CYCLE   42 ..............................
........................................................................

 iter      E             dE          RMSdq      gap      omega  full diag
   1    -63.9149143 -0.639149E+02  0.872E-02    6.28       0.0  T
   2    -63.9149224 -0.807316E-05  0.528E-02    6.28       1.0  T
   3    -63.9149238 -0.137562E-05  0.917E-03    6.28       1.5  T
   4    -63.9149240 -0.185072E-06  0.442E-03    6.28       3.2  T
   5    -63.9149240 -0.794782E-08  0.133E-03    6.28      10.5  T
   6    -63.9149240 -0.491568E-08  0.259E-04    6.28      54.0  T
   7    -63.9149240 -0.313818E-09  0.114E-04    6.28     123.1  T
     SCC iter.                  ...        0 min,  0.088 sec
     gradient                   ...        0 min,  0.094 sec
 * total energy  :   -63.2358593 Eh     change       -0.1342501E-02 Eh
   gradient norm :     0.0163434 Eh/α   predicted    -0.1330047E-02 (  -0.93%)
   displ. norm   :     0.4973154 α      lambda       -0.1618588E-02
   maximum displ.:     0.1898120 α      in ANC's #36, #4, #39, ...
 * RMSD in coord.:     1.1777788 α      energy gain  -0.6245561E-01 Eh

generating ANC from exact Hessian ...
Using Lindh-Hessian (1995)
 Shifting diagonal of input Hessian by    1.0354201874143230E-002
 Lowest  eigenvalues of input Hessian
    0.010000    0.010104    0.010141    0.010279    0.000000    0.000000
    0.000000    0.000000    0.000000    0.000000    0.010635    0.010676
    0.010790    0.010828    0.011025    0.011097    0.011244    0.011302
 Highest eigenvalues
    1.396387    1.412699    1.424946    1.437280    1.437636    1.465404


........................................................................
.............................. CYCLE   43 ..............................
........................................................................

 iter      E             dE          RMSdq      gap      omega  full diag
   1    -63.9202370 -0.639202E+02  0.117E-01    6.36       0.0  T
   2    -63.9202447 -0.770193E-05  0.683E-02    6.36       1.0  T
   3    -63.9202460 -0.121040E-05  0.773E-03    6.36       1.8  T
   4    -63.9202462 -0.194698E-06  0.387E-03    6.36       3.6  T
   5    -63.9202462 -0.154533E-07  0.165E-03    6.36       8.5  T
   6    -63.9202462 -0.271391E-08  0.365E-04    6.36      38.3  T
   7    -63.9202462 -0.586034E-09  0.115E-04    6.36     121.8  T
     SCC iter.                  ...        0 min,  0.110 sec
     gradient                   ...        0 min,  0.091 sec
 * total energy  :   -63.2362723 Eh     change       -0.4130066E-03 Eh
   gradient norm :     0.0278628 Eh/α   predicted     0.0000000E+00 (-100.00%)
   displ. norm   :     0.1525784 α      lambda       -0.1211283E-02
   maximum displ.:     0.0704721 α      in ANC's #25, #5, #30, ...

........................................................................
.............................. CYCLE   44 ..............................
........................................................................

 iter      E             dE          RMSdq      gap      omega  full diag
   1    -63.9227035 -0.639227E+02  0.542E-02    6.33       0.0  T
   2    -63.9227066 -0.308701E-05  0.318E-02    6.33       1.0  T
   3    -63.9227070 -0.433839E-06  0.536E-03    6.33       2.6  T
   4    -63.9227071 -0.720681E-07  0.294E-03    6.33       4.8  T
   5    -63.9227071 -0.325514E-08  0.108E-03    6.33      12.9  T
   6    -63.9227071 -0.254509E-08  0.184E-04    6.33      76.2  T
   7    -63.9227071 -0.211486E-09  0.688E-05    6.33     203.7  T
     SCC iter.                  ...        0 min,  0.088 sec
     gradient                   ...        0 min,  0.050 sec
 * total energy  :   -63.2371321 Eh     change       -0.8598208E-03 Eh
   gradient norm :     0.0077347 Eh/α   predicted    -0.6197586E-03 ( -27.92%)
   displ. norm   :     0.2722585 α      lambda       -0.7292253E-03
   maximum displ.:     0.1241994 α      in ANC's #25, #5, #30, ...

........................................................................
.............................. CYCLE   45 ..............................
........................................................................

 iter      E             dE          RMSdq      gap      omega  full diag
   1    -63.9226223 -0.639226E+02  0.627E-02    6.29       0.0  T
   2    -63.9226245 -0.212915E-05  0.375E-02    6.29       1.0  T
   3    -63.9226250 -0.519724E-06  0.372E-03    6.29       3.8  T
   4    -63.9226251 -0.599754E-07  0.231E-03    6.29       6.1  T
   5    -63.9226251 -0.545533E-08  0.104E-03    6.29      13.5  T
   6    -63.9226251 -0.102188E-08  0.162E-04    6.29      86.6  T
   7    -63.9226251 -0.180677E-09  0.625E-05    6.29     224.0  T
     SCC iter.                  ...        0 min,  0.072 sec
     gradient                   ...        0 min,  0.090 sec
 * total energy  :   -63.2376638 Eh     change       -0.5316695E-03 Eh
   gradient norm :     0.0094514 Eh/α   predicted    -0.3916881E-03 ( -26.33%)
   displ. norm   :     0.3997338 α      lambda       -0.6795167E-03
   maximum displ.:     0.1762417 α      in ANC's #25, #5, #30, ...

........................................................................
.............................. CYCLE   46 ..............................
........................................................................

 iter      E             dE          RMSdq      gap      omega  full diag
   1    -63.9198498 -0.639198E+02  0.722E-02    6.25       0.0  T
   2    -63.9198522 -0.243624E-05  0.436E-02    6.25       1.0  T
   3    -63.9198529 -0.674817E-06  0.326E-03    6.25       4.3  T
   4    -63.9198529 -0.761083E-07  0.172E-03    6.25       8.1  T
   5    -63.9198530 -0.668722E-08  0.812E-04    6.25      17.2  T
   6    -63.9198530 -0.564974E-09  0.133E-04    6.25     105.6  T
     SCC iter.                  ...        0 min,  0.085 sec
     gradient                   ...        0 min,  0.098 sec
 * total energy  :   -63.2381822 Eh     change       -0.5184806E-03 Eh
   gradient norm :     0.0195626 Eh/α   predicted    -0.3940478E-03 ( -24.00%)
   displ. norm   :     0.4891569 α      lambda       -0.8577279E-03
   maximum displ.:     0.2179793 α      in ANC's #5, #25, #30, ...

........................................................................
.............................. CYCLE   47 ..............................
........................................................................

 iter      E             dE          RMSdq      gap      omega  full diag
   1    -63.9167226 -0.639167E+02  0.821E-02    6.21       0.0  T
   2    -63.9167253 -0.278423E-05  0.494E-02    6.21       1.0  T
   3    -63.9167261 -0.755175E-06  0.359E-03    6.21       3.9  T
   4    -63.9167262 -0.681219E-07  0.178E-03    6.21       7.9  T
   5    -63.9167262 -0.551256E-08  0.643E-04    6.21      21.8  T
   6    -63.9167262 -0.752550E-09  0.197E-04    6.21      71.2  T
     SCC iter.                  ...        0 min,  0.110 sec
     gradient                   ...        0 min,  0.073 sec
 * total energy  :   -63.2388167 Eh     change       -0.6344408E-03 Eh
   gradient norm :     0.0211503 Eh/α   predicted    -0.5314931E-03 ( -16.23%)
   displ. norm   :     0.4050008 α      lambda       -0.9709724E-03
   maximum displ.:     0.2104545 α      in ANC's #5, #30, #4, ...

........................................................................
.............................. CYCLE   48 ..............................
........................................................................

 iter      E             dE          RMSdq      gap      omega  full diag
   1    -63.9208935 -0.639209E+02  0.564E-02    6.22       0.0  T
   2    -63.9208947 -0.125595E-05  0.336E-02    6.22       1.0  T
   3    -63.9208951 -0.380485E-06  0.259E-03    6.22       5.4  T
   4    -63.9208951 -0.233623E-07  0.143E-03    6.22       9.8  T
   5    -63.9208951 -0.298137E-08  0.537E-04    6.22      26.1  T
   6    -63.9208951 -0.606185E-09  0.190E-04    6.22      73.8  T
     SCC iter.                  ...        0 min,  0.049 sec
     gradient                   ...        0 min,  0.062 sec
 * total energy  :   -63.2394410 Eh     change       -0.6242931E-03 Eh
   gradient norm :     0.0089317 Eh/α   predicted    -0.5651234E-03 (  -9.48%)
   displ. norm   :     0.4429506 α      lambda       -0.6812450E-03
   maximum displ.:     0.2315237 α      in ANC's #5, #25, #4, ...

........................................................................
.............................. CYCLE   49 ..............................
........................................................................

 iter      E             dE          RMSdq      gap      omega  full diag
   1    -63.9214424 -0.639214E+02  0.683E-02    6.24       0.0  T
   2    -63.9214443 -0.191611E-05  0.414E-02    6.24       1.0  T
   3    -63.9214451 -0.736414E-06  0.421E-03    6.24       3.3  T
   4    -63.9214451 -0.388248E-07  0.221E-03    6.24       6.3  T
   5    -63.9214451 -0.645235E-08  0.605E-04    6.24      23.1  T
   6    -63.9214451 -0.138208E-08  0.235E-04    6.24      59.6  T
     SCC iter.                  ...        0 min,  0.100 sec
     gradient                   ...        0 min,  0.060 sec
 * total energy  :   -63.2398839 Eh     change       -0.4429667E-03 Eh
   gradient norm :     0.0109511 Eh/α   predicted    -0.4074554E-03 (  -8.02%)
   displ. norm   :     0.4384250 α      lambda       -0.7551119E-03
   maximum displ.:     0.2528607 α      in ANC's #5, #4, #30, ...

........................................................................
.............................. CYCLE   50 ..............................
........................................................................

 iter      E             dE          RMSdq      gap      omega  full diag
   1    -63.9245171 -0.639245E+02  0.817E-02    6.30       0.0  T
   2    -63.9245219 -0.485616E-05  0.494E-02    6.30       1.0  T
   3    -63.9245235 -0.158483E-05  0.483E-03    6.30       2.9  T
   4    -63.9245236 -0.894543E-07  0.269E-03    6.30       5.2  T
   5    -63.9245236 -0.887960E-08  0.971E-04    6.30      14.4  T
   6    -63.9245236 -0.180967E-08  0.222E-04    6.30      63.1  T
     SCC iter.                  ...        0 min,  0.042 sec
     gradient                   ...        0 min,  0.052 sec
 * total energy  :   -63.2403057 Eh     change       -0.4217744E-03 Eh
   gradient norm :     0.0170624 Eh/α   predicted    -0.4501292E-03 (   6.72%)
   displ. norm   :     0.4269951 α      lambda       -0.7698260E-03
   maximum displ.:     0.2549827 α      in ANC's #5, #4, #30, ...

........................................................................
.............................. CYCLE   51 ..............................
........................................................................

 iter      E             dE          RMSdq      gap      omega  full diag
   1    -63.9261132 -0.639261E+02  0.762E-02    6.38       0.0  T
   2    -63.9261156 -0.239624E-05  0.457E-02    6.38       1.0  T
   3    -63.9261166 -0.996430E-06  0.521E-03    6.38       2.7  T
   4    -63.9261166 -0.403177E-07  0.316E-03    6.37       4.4  T
   5    -63.9261166 -0.671526E-08  0.620E-04    6.38      22.6  T
   6    -63.9261166 -0.187438E-08  0.201E-04    6.38      69.6  T
     SCC iter.                  ...        0 min,  0.054 sec
     gradient                   ...        0 min,  0.093 sec
 * total energy  :   -63.2407461 Eh     change       -0.4403522E-03 Eh
   gradient norm :     0.0159490 Eh/α   predicted    -0.4550935E-03 (   3.35%)
   displ. norm   :     0.4410622 α      lambda       -0.9310794E-03
   maximum displ.:     0.2708296 α      in ANC's #5, #4, #30, ...

........................................................................
.............................. CYCLE   52 ..............................
........................................................................

 iter      E             dE          RMSdq      gap      omega  full diag
   1    -63.9261994 -0.639262E+02  0.754E-02    6.46       0.0  T
   2    -63.9262060 -0.653150E-05  0.446E-02    6.46       1.0  T
   3    -63.9262076 -0.166040E-05  0.685E-03    6.46       2.0  T
   4    -63.9262078 -0.160077E-06  0.423E-03    6.46       3.3  T
   5    -63.9262078 -0.275862E-07  0.210E-03    6.46       6.7  T
   6    -63.9262078 -0.483679E-08  0.457E-04    6.46      30.6  T
   7    -63.9262078 -0.844025E-09  0.202E-04    6.46      69.5  T
     SCC iter.                  ...        0 min,  0.068 sec
     gradient                   ...        0 min,  0.091 sec
 * total energy  :   -63.2410676 Eh     change       -0.3215507E-03 Eh
   gradient norm :     0.0167402 Eh/α   predicted    -0.5561074E-03 (  72.95%)
   displ. norm   :     0.2250952 α      lambda       -0.6015604E-03
   maximum displ.:     0.1403068 α      in ANC's #5, #4, #3, ...

........................................................................
.............................. CYCLE   53 ..............................
........................................................................

 iter      E             dE          RMSdq      gap      omega  full diag
[...]
          :  GBSA solvation                   true          :
          :  PC potential                    false          :
          :  electronic temp.          300.0000000     K    :
          :  accuracy                    1.0000000          :
          :  -> integral cutoff          0.2500000E+02      :
          :  -> integral neglect         0.1000000E-07      :
          :  -> SCF convergence          0.1000000E-05 Eh   :
          :  -> wf. convergence          0.1000000E-03 e    :
          :  Broyden damping             0.4000000          :
          :  net charge                          2          :
          :  unpaired electrons                  0          :
          ...................................................

 iter      E             dE          RMSdq      gap      omega  full diag
   1    -63.9293155 -0.639293E+02  0.368E-05    6.46       0.0  T
   2    -63.9293155 -0.431299E-11  0.212E-05    6.46     661.8  T
   3    -63.9293155 -0.106581E-11  0.724E-06    6.46    1933.4  T

   *** convergence criteria satisfied after 3 iterations ***

         #    Occupation            Energy/Eh            Energy/eV
      -------------------------------------------------------------
         1        2.0000           -0.7054149             -19.1953
       ...           ...                  ...                  ...
        49        2.0000           -0.4275265             -11.6336
        50        2.0000           -0.4274069             -11.6303
        51        2.0000           -0.4236724             -11.5287
        52        2.0000           -0.4189218             -11.3994
        53        2.0000           -0.4164794             -11.3330
        54        2.0000           -0.4126796             -11.2296
        55        2.0000           -0.4099796             -11.1561 (HOMO)
        56                         -0.1727237              -4.7000 (LUMO)
        57                          0.0223336               0.6077
        58                          0.0293438               0.7985
        59                          0.0324435               0.8828
        60                          0.0423824               1.1533
       ...                                ...                  ...
       102                          1.1322159              30.8092
      -------------------------------------------------------------
                  HL-Gap            0.2372559 Eh            6.4561 eV
             Fermi-level           -0.2913516 Eh           -7.9281 eV

 SCC (total)                   0 d,  0 h,  0 min,  0.182 sec
 SCC setup                      ...        0 min,  0.005 sec (  2.842%)
 Dispersion                     ...        0 min,  0.001 sec (  0.370%)
 classical contributions        ...        0 min,  0.000 sec (  0.140%)
 integral evaluation            ...        0 min,  0.012 sec (  6.658%)
 iterations                     ...        0 min,  0.065 sec ( 35.758%)
 molecular gradient             ...        0 min,  0.096 sec ( 52.764%)
 printout                       ...        0 min,  0.001 sec (  0.632%)

         :::::::::::::::::::::::::::::::::::::::::::::::::::::
         ::                     SUMMARY                     ::
         :::::::::::::::::::::::::::::::::::::::::::::::::::::
         :: total energy             -63.244862619718 Eh    ::
         :: total w/o Gsasa/hb       -63.181572816922 Eh    ::
         :: gradient norm              0.000419653501 Eh/a0 ::
         :: HOMO-LUMO gap              6.456062030044 eV    ::
         ::.................................................::
         :: SCC energy               -63.929393758099 Eh    ::
         :: -> isotropic ES            0.498500675294 Eh    ::
         :: -> anisotropic ES         -0.011722771556 Eh    ::
         :: -> anisotropic XC          0.021356778311 Eh    ::
         :: -> dispersion             -0.031905869246 Eh    ::
         :: -> Gsolv                  -0.357115237024 Eh    ::
         ::    -> Gelec               -0.293825434227 Eh    ::
         ::    -> Gsasa               -0.000775290739 Eh    ::
         ::    -> Ghb                 -0.063595271756 Eh    ::
         ::    -> Gshift               0.001080759698 Eh    ::
         :: repulsion energy           0.684531138381 Eh    ::
         :: add. restraining           0.000000000000 Eh    ::
         :: total charge               2.000000000000 e     ::
         :::::::::::::::::::::::::::::::::::::::::::::::::::::

           -------------------------------------------------
          |                Property Printout                |
           -------------------------------------------------

    * Orbital Energies and Occupations

         #    Occupation            Energy/Eh            Energy/eV
      -------------------------------------------------------------
         1        2.0000           -0.7054149             -19.1953
       ...           ...                  ...                  ...
        43        2.0000           -0.4613073             -12.5528
        44        2.0000           -0.4595085             -12.5039
        45        2.0000           -0.4499393             -12.2435
        46        2.0000           -0.4418934             -12.0245
        47        2.0000           -0.4359540             -11.8629
        48        2.0000           -0.4356289             -11.8541
        49        2.0000           -0.4275265             -11.6336
        50        2.0000           -0.4274069             -11.6303
        51        2.0000           -0.4236724             -11.5287
        52        2.0000           -0.4189218             -11.3994
        53        2.0000           -0.4164794             -11.3330
        54        2.0000           -0.4126796             -11.2296
        55        2.0000           -0.4099796             -11.1561 (HOMO)
        56                         -0.1727237              -4.7000 (LUMO)
        57                          0.0223336               0.6077
        58                          0.0293438               0.7985
        59                          0.0324435               0.8828
        60                          0.0423824               1.1533
        61                          0.0965344               2.6268
        62                          0.1048639               2.8535
        63                          0.1144807               3.1152
        64                          0.1159427               3.1550
        65                          0.1185502               3.2259
        66                          0.1200089               3.2656
       ...                                ...                  ...
       102                          1.1322159              30.8092
      -------------------------------------------------------------
                  HL-Gap            0.2372559 Eh            6.4561 eV
             Fermi-level           -0.2913516 Eh           -7.9281 eV

     #   Z          covCN         q      C6AA      α(0)
     1   6 C        3.752    -0.110    22.661     6.788
     2   6 C        3.801    -0.058    21.614     6.619
     3   6 C        3.803    -0.062    21.695     6.631
     4   6 C        3.803    -0.063    21.700     6.632
     5   6 C        3.803    -0.061    21.678     6.629
     6   6 C        3.803    -0.064    21.725     6.636
     7   6 C        3.803    -0.063    21.702     6.632
     8   6 C        3.803    -0.070    21.843     6.654
     9   6 C        3.801    -0.064    21.720     6.635
    10   6 C        3.753    -0.145    23.358     6.892
    11   1 H        0.925     0.034     2.525     2.485
    12   1 H        0.925     0.033     2.540     2.492
    13   1 H        0.925     0.034     2.525     2.485
    14   1 H        0.924     0.030     2.583     2.514
    15   1 H        0.924     0.030     2.583     2.513
    16   1 H        0.924     0.029     2.604     2.523
    17   1 H        0.924     0.029     2.603     2.523
    18   1 H        0.924     0.030     2.581     2.513
    19   1 H        0.924     0.030     2.581     2.512
    20   1 H        0.924     0.027     2.637     2.539
    21   1 H        0.924     0.027     2.637     2.539
    22   1 H        0.924     0.032     2.556     2.500
    23   1 H        0.924     0.032     2.556     2.500
    24   1 H        0.924     0.023     2.682     2.561
    25   1 H        0.924     0.023     2.684     2.562
    26   1 H        0.924     0.038     2.470     2.458
    27   1 H        0.924     0.039     2.469     2.457
    28   1 H        0.924     0.024     2.680     2.560
    29   1 H        0.924     0.023     2.683     2.562
    30   1 H        0.925     0.071     2.076     2.253
    31   1 H        0.925     0.075     2.033     2.229
    32   1 H        0.925     0.069     2.097     2.264
    33  48 Cd       4.119     0.459   190.531    26.495
    34   8 O        2.286    -0.556    24.075     6.627
    35   1 H        0.805     0.402     0.481     1.089
    36   1 H        0.805     0.398     0.488     1.097
    37   8 O        2.299    -0.543    23.770     6.585
    38   1 H        0.805     0.387     0.509     1.121
    39   1 H        0.805     0.405     0.475     1.083
    40   8 O        2.290    -0.552    23.980     6.614
    41   1 H        0.805     0.403     0.480     1.088
    42   1 H        0.805     0.400     0.484     1.093
    43   8 O        2.304    -0.535    23.604     6.562
    44   1 H        0.805     0.398     0.489     1.098
    45   1 H        0.805     0.393     0.498     1.109
    46   8 O        2.300    -0.533    23.562     6.556
    47   1 H        0.805     0.395     0.494     1.104
    48   1 H        0.805     0.403     0.479     1.088
    49   8 O        2.292    -0.550    23.938     6.608
    50   1 H        0.805     0.403     0.480     1.088
    51   1 H        0.805     0.401     0.483     1.091

 Mol. C6AA /au·bohr⁶  :      17571.920371
 Mol. C8AA /au·bohr⁸  :     439944.257622
 Mol. α(0) /au        :        200.487816


Wiberg/Mayer (AO) data.
largest (>0.10) Wiberg bond orders for each atom

 ---------------------------------------------------------------------------
     #   Z sym  total        # sym  WBO       # sym  WBO       # sym  WBO
 ---------------------------------------------------------------------------
     1   6 C    3.996 --     2 C    1.019    13 H    0.988    11 H    0.988
                            12 H    0.987
     2   6 C    3.997 --     1 C    1.019     3 C    1.008    14 H    0.979
                            15 H    0.979
     3   6 C    3.997 --     2 C    1.008     4 C    1.007    16 H    0.978
                            17 H    0.978
     4   6 C    3.997 --     3 C    1.007     5 C    1.007    18 H    0.978
                            19 H    0.977
     5   6 C    3.996 --     4 C    1.007     6 C    1.006    20 H    0.978
                            21 H    0.978
     6   6 C    3.996 --     5 C    1.006     7 C    1.006    22 H    0.977
                            23 H    0.977
     7   6 C    3.995 --     6 C    1.006     8 C    1.006    24 H    0.978
                            25 H    0.978
     8   6 C    3.994 --     9 C    1.007     7 C    1.006    26 H    0.977
                            27 H    0.977
     9   6 C    3.994 --    10 C    1.016     8 C    1.007    28 H    0.979
                            29 H    0.979
    10   6 C    3.989 --     9 C    1.016    32 H    0.978    30 H    0.977
                            31 H    0.975
    11   1 H    0.999 --     1 C    0.988
    12   1 H    0.999 --     1 C    0.987
    13   1 H    0.999 --     1 C    0.988
    14   1 H    0.999 --     2 C    0.979
    15   1 H    0.999 --     2 C    0.979
    16   1 H    0.999 --     3 C    0.978
    17   1 H    0.999 --     3 C    0.978
    18   1 H    0.999 --     4 C    0.978
    19   1 H    0.999 --     4 C    0.977
    20   1 H    0.999 --     5 C    0.978
    21   1 H    0.999 --     5 C    0.978
    22   1 H    0.999 --     6 C    0.977
    23   1 H    0.999 --     6 C    0.977
    24   1 H    0.999 --     7 C    0.978
    25   1 H    0.999 --     7 C    0.978
    26   1 H    0.998 --     8 C    0.977
    27   1 H    0.998 --     8 C    0.977
    28   1 H    0.999 --     9 C    0.979
    29   1 H    0.999 --     9 C    0.979
    30   1 H    0.995 --    10 C    0.977
    31   1 H    0.994 --    10 C    0.975
    32   1 H    0.995 --    10 C    0.978
    33  48 Cd   2.141 --    46 O    0.342    43 O    0.337    49 O    0.333
                            37 O    0.332    40 O    0.331    34 O    0.326
    34   8 O    2.088 --    36 H    0.830    35 H    0.829    33 Cd   0.326
    35   1 H    0.838 --    34 O    0.829
    36   1 H    0.841 --    34 O    0.830
    37   8 O    2.103 --    38 H    0.836    39 H    0.824    33 Cd   0.332
    38   1 H    0.850 --    37 O    0.836
    39   1 H    0.836 --    37 O    0.824
    40   8 O    2.097 --    42 H    0.829    41 H    0.828    33 Cd   0.331
    41   1 H    0.838 --    40 O    0.828
    42   1 H    0.840 --    40 O    0.829
    43   8 O    2.115 --    45 H    0.834    44 H    0.830    33 Cd   0.337
    44   1 H    0.842 --    43 O    0.830
    45   1 H    0.846 --    43 O    0.834
    46   8 O    2.123 --    47 H    0.833    48 H    0.828    33 Cd   0.342
    47   1 H    0.844 --    46 O    0.833
    48   1 H    0.838 --    46 O    0.828
    49   8 O    2.101 --    51 H    0.829    50 H    0.828    33 Cd   0.333
    50   1 H    0.838 --    49 O    0.828
    51   1 H    0.839 --    49 O    0.829
 ---------------------------------------------------------------------------

Topologies differ in total number of bonds
Writing topology from bond orders to xtbtopo.mol

molecular dipole:
                 x           y           z       tot (Debye)
 q only:       36.057       3.970      -3.465
   full:       35.801       3.915      -3.431      91.953
molecular quadrupole (traceless):
                xx          xy          yy          xz          yz          zz
 q only:      630.598     101.417    -312.528     -90.245     -10.918    -318.070
  q+dip:      626.932     101.061    -311.253     -89.877     -10.278    -315.679
   full:      628.262     100.550    -311.195     -89.890     -10.865    -317.066

           -------------------------------------------------
          |                Geometry Summary                 |
           -------------------------------------------------

      molecular mass/u    :      362.7853318
   center of mass at/Å    :        5.6840863       0.5578672      -0.5332367
  moments of inertia/u·Å² :        0.5041721E+03   0.1023342E+05   0.1034141E+05
rotational constants/cm⁻¹ :        0.3343627E-01   0.1647312E-02   0.1630110E-02

 * 49 selected distances

     #   Z          #   Z                                           value/Å
     1   6 C        2   6 C                                       1.5240936
     2   6 C        3   6 C                                       1.5269798
     3   6 C        4   6 C                                       1.5266611
     4   6 C        5   6 C                                       1.5268640
     5   6 C        6   6 C                                       1.5265748
     6   6 C        7   6 C                                       1.5270101
     7   6 C        8   6 C                                       1.5264322
     8   6 C        9   6 C                                       1.5278423
     9   6 C       10   6 C                                       1.5247572
     1   6 C       11   1 H                                       1.0879074
     1   6 C       12   1 H                                       1.0874293
     1   6 C       13   1 H                                       1.0879119
     2   6 C       14   1 H                                       1.0924349
     2   6 C       15   1 H                                       1.0924458
     3   6 C       16   1 H                                       1.0928445
     3   6 C       17   1 H                                       1.0928563
     4   6 C       18   1 H                                       1.0926997
     4   6 C       19   1 H                                       1.0927228
     5   6 C       20   1 H                                       1.0929717
     5   6 C       21   1 H                                       1.0929912
     6   6 C       22   1 H                                       1.0926163
     6   6 C       23   1 H                                       1.0926381
     7   6 C       24   1 H                                       1.0932636
     7   6 C       25   1 H                                       1.0932907
     8   6 C       26   1 H                                       1.0923549
     8   6 C       27   1 H                                       1.0924007
     9   6 C       28   1 H                                       1.0928084
     9   6 C       29   1 H                                       1.0929655
    10   6 C       30   1 H                                       1.0862298
    10   6 C       31   1 H                                       1.0851987
    10   6 C       32   1 H                                       1.0862253
Note: The following floating-point exceptions are signalling: IEEE_UNDERFLOW_FLAG IEEE_DENORMAL
normal termination of xtb
    33  48 Cd      34   8 O                                       2.1699729 (max)
    34   8 O       35   1 H                                       0.9678175
    34   8 O       36   1 H                                       0.9667371
    33  48 Cd      37   8 O                                       2.1431922
    37   8 O       38   1 H                                       0.9673643
    37   8 O       39   1 H                                       0.9667299
    33  48 Cd      40   8 O                                       2.1610653
    40   8 O       41   1 H                                       0.9684603
    40   8 O       42   1 H                                       0.9670554
    33  48 Cd      43   8 O                                       2.1312052
    43   8 O       44   1 H                                       0.9666049 (min)
    43   8 O       45   1 H                                       0.9679031
    33  48 Cd      46   8 O                                       2.1393551
    46   8 O       47   1 H                                       0.9676483
    46   8 O       48   1 H                                       0.9679592
    33  48 Cd      49   8 O                                       2.1578550
    49   8 O       50   1 H                                       0.9675220
    49   8 O       51   1 H                                       0.9675292

 * 4 distinct bonds (by element types)

   Z      Z             #   av. dist./Å        max./Å        min./Å
   1 H    6 C          22     1.0911458     1.0932907     1.0851987
   6 C    6 C           9     1.5263572     1.5278423     1.5240936
   1 H    8 O          12     0.9674443     0.9684603     0.9666049
   8 O   48 Cd          6     2.1504409     2.1699729     2.1312052


optimized geometry written to: xtbopt.xyz


           -------------------------------------------------
          | TOTAL ENERGY              -63.244862619718 Eh   |
          | GRADIENT NORM               0.000419653501 Eh/α |
          | HOMO-LUMO GAP               6.456062030044 eV   |
           -------------------------------------------------

------------------------------------------------------------------------
 * finished run on 2026/05/26 at 02:13:13.084     
------------------------------------------------------------------------
 total:
 * wall-time:     0 d,  0 h,  0 min, 38.389 sec
 *  cpu-time:     0 d,  0 h,  1 min,  4.484 sec
 * ratio c/w:     1.680 speedup
 SCF:
 * wall-time:     0 d,  0 h,  0 min,  0.234 sec
 *  cpu-time:     0 d,  0 h,  0 min,  0.442 sec
 * ratio c/w:     1.890 speedup
 ANC optimizer:
 * wall-time:     0 d,  0 h,  0 min, 38.105 sec
 *  cpu-time:     0 d,  0 h,  1 min,  3.978 sec
 * ratio c/w:     1.679 speedup

