      -----------------------------------------------------------      
     |                   =====================                   |     
     |                           x T B                           |     
     |                   =====================                   |     
     |                         S. Grimme                         |     
     |          Mulliken Center for Theoretical Chemistry        |     
     |                    University of Bonn                     |     
      -----------------------------------------------------------      

   * xtb version 6.7.1 (edcfbbe) compiled by 'conda@c0858423619e' on 2025-09-04

   xtb is free software: you can redistribute it and/or modify it under
   the terms of the GNU Lesser General Public License as published by
   the Free Software Foundation, either version 3 of the License, or
   (at your option) any later version.
   
   xtb is distributed in the hope that it will be useful,
   but WITHOUT ANY WARRANTY; without even the implied warranty of
   MERCHANTABILITY or FITNESS FOR A PARTICULAR PURPOSE.  See the
   GNU Lesser General Public License for more details.
   
   Cite this work as:
   * C. Bannwarth, E. Caldeweyher, S. Ehlert, A. Hansen, P. Pracht,
     J. Seibert, S. Spicher, S. Grimme, WIREs Comput. Mol. Sci., 2020, 11,
     e01493. DOI: 10.1002/wcms.1493
   
   for GFN2-xTB:
   * C. Bannwarth, S. Ehlert and S. Grimme., J. Chem. Theory Comput., 2019,
     15, 1652-1671. DOI: 10.1021/acs.jctc.8b01176
   for GFN1-xTB:
   * S. Grimme, C. Bannwarth, P. Shushkov, J. Chem. Theory Comput., 2017,
     13, 1989-2009. DOI: 10.1021/acs.jctc.7b00118
   for GFN0-xTB:
   * P. Pracht, E. Caldeweyher, S. Ehlert, S. Grimme, ChemRxiv, 2019, preprint.
     DOI: 10.26434/chemrxiv.8326202.v1
   for GFN-FF:
   * S. Spicher and S. Grimme, Angew. Chem. Int. Ed., 2020, 59, 15665-15673.
     DOI: 10.1002/anie.202004239
   
   for ALPB and GBSA implicit solvation:
   * S. Ehlert, M. Stahn, S. Spicher, S. Grimme, J. Chem. Theory Comput.,
     2021, 17, 4250-4261. DOI: 10.1021/acs.jctc.1c00471
   
   for ddCOSMO and CPCM-X implicit solvation:
   * M. Stahn, S. Ehlert, S. Grimme, J. Phys. Chem. A,
     2023, XX, XXXX-XXXX. DOI: 10.1021/acs.jpca.3c04382
   
   for DFT-D4:
   * E. Caldeweyher, C. Bannwarth and S. Grimme, J. Chem. Phys., 2017,
     147, 034112. DOI: 10.1063/1.4993215
   * E. Caldeweyher, S. Ehlert, A. Hansen, H. Neugebauer, S. Spicher,
     C. Bannwarth and S. Grimme, J. Chem. Phys., 2019, 150, 154122.
     DOI: 10.1063/1.5090222
   * E. Caldeweyher, J.-M. Mewes, S. Ehlert and S. Grimme, Phys. Chem. Chem. Phys.
     2020, 22, 8499-8512. DOI: 10.1039/D0CP00502A
   
   for sTDA-xTB:
   * S. Grimme and C. Bannwarth, J. Chem. Phys., 2016, 145, 054103.
     DOI: 10.1063/1.4959605
   
   in the mass-spec context:
   * V. Asgeirsson, C. Bauer and S. Grimme, Chem. Sci., 2017, 8, 4879.
     DOI: 10.1039/c7sc00601b
   * J. Koopman and S. Grimme, ACS Omega 2019, 4, 12, 15120-15133.
     DOI: 10.1021/acsomega.9b02011
   
   for metadynamics refer to:
   * S. Grimme, J. Chem. Theory Comput., 2019, 155, 2847-2862
     DOI: 10.1021/acs.jctc.9b00143
   
   for SPH calculations refer to:
   * S. Spicher and S. Grimme, J. Chem. Theory Comput., 2021, 17, 1701-1714
     DOI: 10.1021/acs.jctc.0c01306
   
   for ONIOM refer to:
   * C. Plett, A. Katbashev, S. Ehlert, S. Grimme, M. Bursch,
     Phys. Chem. Chem. Phys., 2023, 25, 17860-17868. DOI: 10.1039/D3CP02178E
   
   for DIPRO refer to:
   * J. Kohn, N. Gildemeister, S. Grimme, D. Fazzi, A. Hansen,
     J. Chem. Phys., 2023, just accepted.
   
   for PTB refer to:
   * S. Grimme, M. Mueller, A. Hansen, J. Chem. Phys., 2023, 158, 124111.
     DOI: 10.1063/5.0137838
   
   with help from (in alphabetical order)
   P. Atkinson, C. Bannwarth, F. Bohle, G. Brandenburg, E. Caldeweyher
   M. Checinski, S. Dohm, S. Ehlert, S. Ehrlich, I. Gerasimov, C. Hölzer
   A. Katbashev, J. Kohn, J. Koopman, C. Lavigne, S. Lehtola, F. März, M. Müller,
   F. Musil, H. Neugebauer, J. Pisarek, C. Plett, P. Pracht, F. Pultar,
   J. Seibert, P. Shushkov, S. Spicher, M. Stahn, M. Steiner, T. Strunk,
   J. Stückrath, T. Rose, and J. Unsleber
   
 * started run on 2026/05/26 at 02:08:30.680     
   ID    Z sym.   atoms
    1    6 C      1-10
    2    1 H      11-32, 35, 36, 38, 39, 41, 42, 44, 45, 47, 48, 50, 51
    3   48 Cd     33
    4    8 O      34, 37, 40, 43, 46, 49

           -------------------------------------------------
          |                Calculation Setup                |
           -------------------------------------------------

          program call               : /content/xtb_env/bin/xtb input.xyz --gfn 2 --opt tight --alpb water --chrg 2 --uhf 0
          hostname                   : 01035569fb61
          coordinate file            : input.xyz
          omp threads                :                     2


molecular fragmentation (1/2 indicates fragments):
111111111111111111111111111111111111111111111222222
# atoms in fragment 1/2:    45     6
 fragment masses (1/2) :      326.75       36.03
CMA distance (Bohr)    :   4.637
constraining FC (au)   :  0.0500

           -------------------------------------------------
          |                 G F N 2 - x T B                 |
           -------------------------------------------------

        Reference                      10.1021/acs.jctc.8b01176
      * Hamiltonian:
        H0-scaling (s, p, d)           1.850000    2.230000    2.230000
        zeta-weighting                 0.500000
      * Dispersion:
        s8                             2.700000
        a1                             0.520000
        a2                             5.000000
        s9                             5.000000
      * Repulsion:
        kExp                           1.500000    1.000000
        rExp                           1.000000
      * Coulomb:
        alpha                          2.000000
        third order                    shell-resolved
        anisotropic                    true
        a3                             3.000000
        a5                             4.000000
        cn-shift                       1.200000
        cn-exp                         4.000000
        max-rad                        5.000000

      * Solvation model:               ALPB
        Solvent                        water
        Parameter file                 internal GFN2-xTB/ALPB
        Dielectric constant                8.0200E+01
        Reference state                gsolv [1 M gas/solution]
        Free energy shift                  1.0808E-03 Eh       6.7819E-01 kcal/mol
        Temperature                        2.9815E+02 K
        Density                            1.0000E+00 kg/L
        Solvent mass                       1.8000E+01 g/mol
        Interaction kernel             P16
        Born radius scaling (c1)           1.4744E+00
        Born radii integrator          GBOBC
        Born offset                        0.0000E+00 a0       0.0000E+00 AA
        H-bond correction              true
        Ion screening                  false
        Surface tension                    1.0000E-05 Eh       1.5569E+01 dyn/cm
        Grid points                               230 per atom

          ...................................................
          :                      SETUP                      :
          :.................................................:
          :  # basis functions                 102          :
          :  # atomic orbitals                 102          :
          :  # shells                           68          :
          :  # electrons                       110          :
          :  max. iterations                   250          :
          :  Hamiltonian                  GFN2-xTB          :
          :  restarted?                      false          :
          :  GBSA solvation                   true          :
          :  PC potential                    false          :
          :  electronic temp.          300.0000000     K    :
          :  accuracy                    1.0000000          :
          :  -> integral cutoff          0.2500000E+02      :
          :  -> integral neglect         0.1000000E-07      :
          :  -> SCF convergence          0.1000000E-05 Eh   :
          :  -> wf. convergence          0.1000000E-03 e    :
          :  Broyden damping             0.4000000          :
          :  net charge                          2          :
          :  unpaired electrons                  0          :
          ...................................................

 iter      E             dE          RMSdq      gap      omega  full diag
   1    -60.5417054 -0.605417E+02  0.642E+00    0.75       0.0  T
   2    -60.4570835  0.846219E-01  0.458E+00    0.20       1.0  T
   3    -60.7215651 -0.264482E+00  0.313E+00    0.43       1.0  T
   4    -61.0533054 -0.331740E+00  0.150E+00    0.83       1.0  T
   5    -61.0961842 -0.428788E-01  0.977E-01    0.48       1.0  T
   6    -61.1051341 -0.894996E-02  0.667E-01    0.50       1.0  T
   7    -61.1132870 -0.815288E-02  0.347E-01    0.23       1.0  T
   8    -61.1147006 -0.141362E-02  0.179E-01    0.23       1.0  T
   9    -61.1151342 -0.433619E-03  0.953E-02    0.23       1.0  T
  10    -61.1152909 -0.156617E-03  0.339E-02    0.22       1.0  T
  11    -61.1153042 -0.133001E-04  0.172E-02    0.23       1.0  T
  12    -61.1153062 -0.200992E-05  0.147E-02    0.22       1.0  T
  13    -61.1153098 -0.366047E-05  0.518E-03    0.22       2.7  T
  14    -61.1153103 -0.462333E-06  0.277E-03    0.22       5.1  T
  15    -61.1153104 -0.715765E-07  0.153E-03    0.22       9.2  T
  16    -61.1153104 -0.716538E-07  0.825E-04    0.22      17.0  T
  17    -61.1153105 -0.169239E-07  0.364E-04    0.22      38.5  T

   *** convergence criteria satisfied after 17 iterations ***

         #    Occupation            Energy/Eh            Energy/eV
      -------------------------------------------------------------
         1        2.0000           -0.7837947             -21.3281
       ...           ...                  ...                  ...
        49        2.0000           -0.3327040              -9.0533
        50        2.0000           -0.3233717              -8.7994
        51        2.0000           -0.2943280              -8.0091
        52        2.0000           -0.2593611              -7.0576
        53        2.0000           -0.2528331              -6.8799
        54        2.0000           -0.2356957              -6.4136
        55        1.9744           -0.2126327              -5.7860 (HOMO)
        56        0.0256           -0.2043783              -5.5614 (LUMO)
        57                         -0.1715462              -4.6680
        58                         -0.1549831              -4.2173
        59                         -0.1339574              -3.6452
        60                         -0.1168526              -3.1797
       ...                                ...                  ...
       102                         37.7177344            1026.3518
      -------------------------------------------------------------
                  HL-Gap            0.0082544 Eh            0.2246 eV
             Fermi-level           -0.2085055 Eh           -5.6737 eV

 SCC (total)                   0 d,  0 h,  0 min,  0.733 sec
 SCC setup                      ...        0 min,  0.008 sec (  1.068%)
 Dispersion                     ...        0 min,  0.001 sec (  0.112%)
 classical contributions        ...        0 min,  0.004 sec (  0.530%)
 integral evaluation            ...        0 min,  0.032 sec (  4.320%)
 iterations                     ...        0 min,  0.577 sec ( 78.731%)
 molecular gradient             ...        0 min,  0.110 sec ( 15.066%)
 printout                       ...        0 min,  0.001 sec (  0.169%)

         :::::::::::::::::::::::::::::::::::::::::::::::::::::
         ::                     SUMMARY                     ::
         :::::::::::::::::::::::::::::::::::::::::::::::::::::
         :: total energy             -37.136045117494 Eh    ::
         :: total w/o Gsasa/hb       -37.074856111394 Eh    ::
         :: gradient norm             72.536684273499 Eh/a0 ::
         :: HOMO-LUMO gap              0.224614060193 eV    ::
         ::.................................................::
         :: SCC energy               -61.115376882271 Eh    ::
         :: -> isotropic ES            0.670372748401 Eh    ::
         :: -> anisotropic ES          0.009204123525 Eh    ::
         :: -> anisotropic XC          0.035134607741 Eh    ::
         :: -> dispersion             -0.039667834369 Eh    ::
         :: -> Gsolv                  -0.484802302256 Eh    ::
         ::    -> Gelec               -0.423613296156 Eh    ::
         ::    -> Gsasa               -0.001537762169 Eh    ::
         ::    -> Ghb                 -0.060732003630 Eh    ::
         ::    -> Gshift               0.001080759698 Eh    ::
         :: repulsion energy          23.979331764777 Eh    ::
         :: add. restraining           0.000000000000 Eh    ::
         :: total charge               2.000000000001 e     ::
         :::::::::::::::::::::::::::::::::::::::::::::::::::::

      ----------------------------------------------------------- 
     |                   =====================                   |
     |                        A N C O P T                        |
     |                   =====================                   |
     |               Approximate Normal Coordinate               |
     |                Rational Function Optimizer                |
      ----------------------------------------------------------- 
      ----------------------------------------------------------- 
     |                   =====================                   |
     |                        A N C O P T                        |
     |                   =====================                   |
     |               Approximate Normal Coordinate               |
     |                Rational Function Optimizer                |
      ----------------------------------------------------------- 

          ...................................................
          :                      SETUP                      :
          :.................................................:
          :   optimization level             tight          :
          :   max. optcycles                   255          :
          :   ANC micro-cycles                  20          :
          :   degrees of freedom               147          :
          :.................................................:
          :   RF solver                   davidson          :
          :   write xtbopt.log                true          :
          :   linear?                        false          :
          :   energy convergence         0.1000000E-05 Eh   :
          :   grad. convergence          0.8000000E-03 Eh/α :
          :   maxmium RF displ.          1.0000000          :
          :   Hlow (freq-cutoff)         0.1000000E-01      :
          :   Hmax (freq-cutoff)         5.0000000          :
          :   S6 in model hess.         20.0000000          :
          ...................................................

generating ANC from exact Hessian ...
Using Lindh-Hessian (1995)
 Shifting diagonal of input Hessian by    9.9106003895079470E-003
 Lowest  eigenvalues of input Hessian
    0.000000    0.000000    0.000000    0.000000    0.000000    0.000000
    0.010000    0.010050    0.010451    0.010620    0.010771    0.011156
    0.012228    0.012283    0.012425    0.012962    0.013178    0.013835
 Highest eigenvalues
    5.878496   11.614824   14.861052   16.074507   18.472817   31.287822


........................................................................
.............................. CYCLE    1 ..............................
........................................................................

 iter      E             dE          RMSdq      gap      omega  full diag
   1    -61.1153105 -0.611153E+02  0.111E-04    0.22       0.0  T
   2    -61.1153105  0.408043E-09  0.148E-04    0.22      94.3  T
   3    -61.1153105 -0.694342E-09  0.658E-05    0.22     212.8  T
     SCC iter.                  ...        0 min,  0.776 sec
     gradient                   ...        0 min,  0.150 sec
 * total energy  :   -37.1360451 Eh     change       -0.4069832E-08 Eh
   gradient norm :    72.5366846 Eh/α   predicted     0.0000000E+00 (-100.00%)
   displ. norm   :     0.9662347 α      lambda       -0.7008536E+02
   maximum displ.:     0.9048986 α      in ANC's #145, #143, #144, ...

........................................................................
.............................. CYCLE    2 ..............................
........................................................................

 iter      E             dE          RMSdq      gap      omega  full diag
   1    -60.9718739 -0.609719E+02  0.178E+00    0.27       0.0  T
   2    -61.0794471 -0.107573E+00  0.117E+00    1.08       1.0  T
   3    -61.1278339 -0.483868E-01  0.583E-01    0.34       1.0  T
   4    -61.1280653 -0.231407E-03  0.416E-01    0.49       1.0  T
   5    -61.1230327  0.503263E-02  0.415E-01    0.31       1.0  T
   6    -61.1325788 -0.954610E-02  0.936E-02    0.41       1.0  T
   7    -61.1328425 -0.263748E-03  0.539E-02    0.39       1.0  T
   8    -61.1328333  0.919347E-05  0.405E-02    0.39       1.0  T
   9    -61.1328951 -0.617499E-04  0.139E-02    0.38       1.0  T
  10    -61.1328949  0.189791E-06  0.106E-02    0.38       1.3  T
  11    -61.1328978 -0.284984E-05  0.482E-03    0.38       2.9  T
  12    -61.1328983 -0.533970E-06  0.946E-04    0.38      14.8  T
  13    -61.1328982  0.448933E-07  0.112E-03    0.38      12.5  T
  14    -61.1328983 -0.333571E-07  0.751E-04    0.38      18.6  T
     SCC iter.                  ...        0 min,  0.243 sec
     gradient                   ...        0 min,  0.058 sec
 * total energy  :   -58.9524545 Eh     change       -0.2181641E+02 Eh
   gradient norm :     5.2087665 Eh/α   predicted    -0.6776059E+02 ( 210.59%)
   displ. norm   :     0.5912697 α      lambda       -0.2360161E+01
   maximum displ.:     0.5020468 α      in ANC's #143, #145, #111, ...

........................................................................
.............................. CYCLE    3 ..............................
........................................................................

 iter      E             dE          RMSdq      gap      omega  full diag
   1    -61.3254181 -0.613254E+02  0.979E-01    0.96       0.0  T
   2    -61.3381630 -0.127450E-01  0.606E-01    0.40       1.0  T
   3    -61.3446216 -0.645855E-02  0.392E-01    0.49       1.0  T
   4    -61.3469584 -0.233679E-02  0.141E-01    0.39       1.0  T
   5    -61.3474044 -0.446049E-03  0.566E-02    0.41       1.0  T
   6    -61.3474307 -0.262277E-04  0.377E-02    0.41       1.0  T
   7    -61.3474367 -0.604745E-05  0.257E-02    0.41       1.0  T
   8    -61.3474410 -0.432107E-05  0.131E-02    0.41       1.1  T
   9    -61.3474416 -0.530039E-06  0.699E-03    0.42       2.0  T
  10    -61.3474422 -0.671500E-06  0.320E-03    0.42       4.4  T
  11    -61.3474424 -0.193640E-06  0.123E-03    0.42      11.4  T
  12    -61.3474424 -0.118371E-07  0.514E-04    0.42      27.2  T
  13    -61.3474424 -0.250763E-08  0.276E-04    0.42      50.7  T
     SCC iter.                  ...        0 min,  0.141 sec
     gradient                   ...        0 min,  0.060 sec
 * total energy  :   -59.7643221 Eh     change       -0.8118676E+00 Eh
   gradient norm :     3.5118717 Eh/α   predicted    -0.1592649E+01 (  96.17%)
   displ. norm   :     0.6335763 α      lambda       -0.6346985E+00
   maximum displ.:     0.2282017 α      in ANC's #39, #53, #63, ...

........................................................................
.............................. CYCLE    4 ..............................
........................................................................

 iter      E             dE          RMSdq      gap      omega  full diag
   1    -61.6857240 -0.616857E+02  0.760E-01    1.39       0.0  T
   2    -61.6919168 -0.619279E-02  0.353E-01    1.23       1.0  T
   3    -61.6922805 -0.363768E-03  0.198E-01    1.14       1.0  T
   4    -61.6925341 -0.253579E-03  0.972E-02    1.13       1.0  T
   5    -61.6926219 -0.877697E-04  0.592E-02    1.14       1.0  T
   6    -61.6926798 -0.578937E-04  0.208E-02    1.14       1.0  T
   7    -61.6926805 -0.723096E-06  0.896E-03    1.14       1.6  T
   8    -61.6926822 -0.172527E-05  0.404E-03    1.14       3.5  T
   9    -61.6926823 -0.355548E-07  0.223E-03    1.14       6.3  T
  10    -61.6926823 -0.783107E-07  0.861E-04    1.14      16.3  T
  11    -61.6926823 -0.367847E-08  0.475E-04    1.14      29.5  T
     SCC iter.                  ...        0 min,  0.094 sec
     gradient                   ...        0 min,  0.098 sec
 * total energy  :   -60.3325904 Eh     change       -0.5682683E+00 Eh
   gradient norm :     2.7543746 Eh/α   predicted    -0.4447393E+00 ( -21.74%)
   displ. norm   :     0.6981682 α      lambda       -0.7599574E+00
   maximum displ.:     0.2464259 α      in ANC's #141, #39, #135, ...

........................................................................
.............................. CYCLE    5 ..............................
........................................................................

 iter      E             dE          RMSdq      gap      omega  full diag
   1    -62.0582374 -0.620582E+02  0.959E-01    1.63       0.0  T
   2    -62.0673003 -0.906285E-02  0.469E-01    1.62       1.0  T
   3    -62.0678954 -0.595124E-03  0.244E-01    1.73       1.0  T
   4    -62.0682143 -0.318937E-03  0.144E-01    1.72       1.0  T
   5    -62.0682276 -0.132196E-04  0.833E-02    1.71       1.0  T
   6    -62.0682889 -0.613085E-04  0.383E-02    1.73       1.0  T
   7    -62.0683073 -0.184662E-04  0.116E-02    1.72       1.2  T
   8    -62.0683078 -0.511711E-06  0.733E-03    1.72       1.9  T
   9    -62.0683084 -0.557787E-06  0.296E-03    1.72       4.7  T
  10    -62.0683085 -0.623297E-07  0.179E-03    1.72       7.8  T
  11    -62.0683085 -0.179787E-07  0.753E-04    1.72      18.6  T
  12    -62.0683085 -0.473001E-08  0.288E-04    1.72      48.5  T
     SCC iter.                  ...        0 min,  0.229 sec
     gradient                   ...        0 min,  0.067 sec
 * total energy  :   -60.9601355 Eh     change       -0.6275451E+00 Eh
   gradient norm :     1.6563658 Eh/α   predicted    -0.5651983E+00 (  -9.94%)
   displ. norm   :     0.7262666 α      lambda       -0.5619605E+00
   maximum displ.:     0.2747603 α      in ANC's #141, #39, #63, ...

........................................................................
.............................. CYCLE    6 ..............................
........................................................................

 iter      E             dE          RMSdq      gap      omega  full diag
   1    -62.3597887 -0.623598E+02  0.775E-01    1.73       0.0  T
   2    -62.3665672 -0.677850E-02  0.443E-01    1.82       1.0  T
   3    -62.3675214 -0.954267E-03  0.253E-01    1.88       1.0  T
   4    -62.3680327 -0.511256E-03  0.137E-01    1.91       1.0  T
   5    -62.3681159 -0.831888E-04  0.751E-02    1.89       1.0  T
   6    -62.3681363 -0.204034E-04  0.300E-02    1.90       1.0  T
   7    -62.3681414 -0.511690E-05  0.988E-03    1.89       1.4  T
   8    -62.3681417 -0.331001E-06  0.538E-03    1.89       2.6  T
   9    -62.3681419 -0.160695E-06  0.315E-03    1.89       4.4  T
  10    -62.3681419 -0.490658E-07  0.159E-03    1.89       8.8  T
  11    -62.3681420 -0.184656E-07  0.443E-04    1.89      31.6  T
  12    -62.3681420 -0.194738E-08  0.168E-04    1.89      83.1  T
     SCC iter.                  ...        0 min,  0.164 sec
     gradient                   ...        0 min,  0.101 sec
 * total energy  :   -61.4293803 Eh     change       -0.4692448E+00 Eh
   gradient norm :     0.9675846 Eh/α   predicted    -0.4291874E+00 (  -8.54%)
   displ. norm   :     0.7691090 α      lambda       -0.4134861E+00
   maximum displ.:     0.3020317 α      in ANC's #39, #141, #63, ...

........................................................................
.............................. CYCLE    7 ..............................
........................................................................

 iter      E             dE          RMSdq      gap      omega  full diag
   1    -62.6047476 -0.626047E+02  0.701E-01    2.06       0.0  T
   2    -62.6080578 -0.331018E-02  0.388E-01    2.15       1.0  T
   3    -62.6084081 -0.350320E-03  0.197E-01    2.18       1.0  T
   4    -62.6090742 -0.666044E-03  0.702E-02    2.20       1.0  T
   5    -62.6090821 -0.788639E-05  0.432E-02    2.18       1.0  T
   6    -62.6090868 -0.471608E-05  0.160E-02    2.19       1.0  T
   7    -62.6090879 -0.110330E-05  0.555E-03    2.18       2.5  T
   8    -62.6090880 -0.138533E-06  0.328E-03    2.18       4.3  T
   9    -62.6090881 -0.444433E-07  0.174E-03    2.18       8.0  T
  10    -62.6090881 -0.119205E-07  0.627E-04    2.18      22.3  T
  11    -62.6090881 -0.445917E-08  0.210E-04    2.18      66.5  T
     SCC iter.                  ...        0 min,  0.130 sec
     gradient                   ...        0 min,  0.072 sec
 * total energy  :   -61.7790772 Eh     change       -0.3496969E+00 Eh
   gradient norm :     0.5806351 Eh/α   predicted    -0.3290377E+00 (  -5.91%)
   displ. norm   :     0.8151641 α      lambda       -0.3071766E+00
   maximum displ.:     0.3453119 α      in ANC's #39, #141, #45, ...

........................................................................
.............................. CYCLE    8 ..............................
........................................................................

 iter      E             dE          RMSdq      gap      omega  full diag
   1    -62.8040935 -0.628041E+02  0.577E-01    2.46       0.0  T
   2    -62.8056820 -0.158844E-02  0.318E-01    2.50       1.0  T
   3    -62.8057090 -0.270371E-04  0.154E-01    2.49       1.0  T
   4    -62.8061287 -0.419696E-03  0.502E-02    2.51       1.0  T
   5    -62.8061307 -0.200270E-05  0.284E-02    2.50       1.0  T
   6    -62.8061322 -0.155334E-05  0.856E-03    2.50       1.6  T
   7    -62.8061327 -0.469647E-06  0.345E-03    2.50       4.1  T
   8    -62.8061328 -0.511534E-07  0.201E-03    2.50       7.0  T
   9    -62.8061328 -0.242823E-07  0.117E-03    2.50      11.9  T
  10    -62.8061328 -0.754388E-08  0.355E-04    2.50      39.5  T
  11    -62.8061328 -0.771820E-09  0.106E-04    2.50     132.4  T
     SCC iter.                  ...        0 min,  0.087 sec
     gradient                   ...        0 min,  0.049 sec
 * total energy  :   -62.0475496 Eh     change       -0.2684724E+00 Eh
   gradient norm :     0.3865169 Eh/α   predicted    -0.2556467E+00 (  -4.78%)
   displ. norm   :     0.8460650 α      lambda       -0.2446257E+00
   maximum displ.:     0.3457609 α      in ANC's #39, #45, #63, ...

........................................................................
.............................. CYCLE    9 ..............................
........................................................................

 iter      E             dE          RMSdq      gap      omega  full diag
   1    -62.9796791 -0.629797E+02  0.484E-01    2.82       0.0  T
   2    -62.9805383 -0.859124E-03  0.271E-01    2.83       1.0  T
   3    -62.9804966  0.416275E-04  0.119E-01    2.81       1.0  T
   4    -62.9807166 -0.219952E-03  0.382E-02    2.82       1.0  T
   5    -62.9807177 -0.109913E-05  0.212E-02    2.82       1.0  T
   6    -62.9807187 -0.988454E-06  0.579E-03    2.82       2.4  T
   7    -62.9807190 -0.361224E-06  0.172E-03    2.82       8.2  T
   8    -62.9807191 -0.346110E-07  0.798E-04    2.82      17.5  T
   9    -62.9807191 -0.348571E-08  0.411E-04    2.82      34.0  T
     SCC iter.                  ...        0 min,  0.163 sec
     gradient                   ...        0 min,  0.071 sec
 * total energy  :   -62.2648298 Eh     change       -0.2172801E+00 Eh
   gradient norm :     0.2831271 Eh/α   predicted    -0.2098676E+00 (  -3.41%)
   displ. norm   :     0.8599265 α      lambda       -0.1995744E+00
   maximum displ.:     0.3250699 α      in ANC's #39, #63, #45, ...

........................................................................
.............................. CYCLE   10 ..............................
........................................................................

 iter      E             dE          RMSdq      gap      omega  full diag
   1    -63.1345473 -0.631345E+02  0.455E-01    3.22       0.0  T
   2    -63.1350619 -0.514659E-03  0.257E-01    3.19       1.0  T
   3    -63.1350278  0.341980E-04  0.891E-02    3.16       1.0  T
   4    -63.1351422 -0.114434E-03  0.300E-02    3.17       1.0  T
   5    -63.1351432 -0.971438E-06  0.172E-02    3.17       1.0  T
   6    -63.1351442 -0.999246E-06  0.600E-03    3.18       2.3  T
   7    -63.1351444 -0.258296E-06  0.199E-03    3.18       7.0  T
   8    -63.1351444 -0.949686E-08  0.125E-03    3.18      11.2  T
   9    -63.1351444 -0.809710E-08  0.543E-04    3.18      25.8  T
  10    -63.1351444 -0.100683E-08  0.170E-04    3.18      82.4  T
     SCC iter.                  ...        0 min,  0.120 sec
     gradient                   ...        0 min,  0.099 sec
 * total energy  :   -62.4432766 Eh     change       -0.1784469E+00 Eh
   gradient norm :     0.2229049 Eh/α   predicted    -0.1735774E+00 (  -2.73%)
   displ. norm   :     0.8616560 α      lambda       -0.1636750E+00
   maximum displ.:     0.2853807 α      in ANC's #39, #63, #26, ...

........................................................................
.............................. CYCLE   11 ..............................
........................................................................

 iter      E             dE          RMSdq      gap      omega  full diag
   1    -63.2704629 -0.632705E+02  0.451E-01    3.75       0.0  T
   2    -63.2708443 -0.381407E-03  0.255E-01    3.73       1.0  T
   3    -63.2708463 -0.198109E-05  0.660E-02    3.69       1.0  T
   4    -63.2708976 -0.512407E-04  0.271E-02    3.70       1.0  T
   5    -63.2708988 -0.125442E-05  0.161E-02    3.70       1.0  T
   6    -63.2708997 -0.877101E-06  0.665E-03    3.70       2.1  T
   7    -63.2708999 -0.221253E-06  0.256E-03    3.70       5.5  T
   8    -63.2708999 -0.147843E-07  0.120E-03    3.70      11.7  T
   9    -63.2708999 -0.501846E-08  0.365E-04    3.70      38.4  T
  10    -63.2708999 -0.929937E-09  0.129E-04    3.70     108.8  T
     SCC iter.                  ...        0 min,  0.151 sec
     gradient                   ...        0 min,  0.080 sec
 * total energy  :   -62.5890245 Eh     change       -0.1457479E+00 Eh
   gradient norm :     0.1810254 Eh/α   predicted    -0.1425979E+00 (  -2.16%)
   displ. norm   :     0.8566777 α      lambda       -0.1320041E+00
   maximum displ.:     0.2787288 α      in ANC's #26, #63, #39, ...

........................................................................
.............................. CYCLE   12 ..............................
........................................................................

 iter      E             dE          RMSdq      gap      omega  full diag
   1    -63.3848819 -0.633849E+02  0.442E-01    4.65       0.0  T
   2    -63.3852684 -0.386488E-03  0.246E-01    4.64       1.0  T
   3    -63.3852754 -0.704354E-05  0.569E-02    4.60       1.0  T
   4    -63.3853170 -0.416207E-04  0.243E-02    4.61       1.0  T
   5    -63.3853197 -0.270332E-05  0.140E-02    4.61       1.0  T
   6    -63.3853202 -0.508981E-06  0.668E-03    4.62       2.1  T
   7    -63.3853204 -0.133197E-06  0.206E-03    4.61       6.8  T
   8    -63.3853204 -0.112573E-07  0.115E-03    4.61      12.2  T
   9    -63.3853204 -0.278295E-08  0.309E-04    4.61      45.3  T
  10    -63.3853204 -0.646430E-09  0.128E-04    4.61     109.2  T
     SCC iter.                  ...        0 min,  0.122 sec
     gradient                   ...        0 min,  0.092 sec
 * total energy  :   -62.7059701 Eh     change       -0.1169456E+00 Eh
   gradient norm :     0.1539113 Eh/α   predicted    -0.1144407E+00 (  -2.14%)
   displ. norm   :     0.8502626 α      lambda       -0.1059157E+00
   maximum displ.:     0.3079067 α      in ANC's #26, #63, #18, ...

........................................................................
.............................. CYCLE   13 ..............................
........................................................................

 iter      E             dE          RMSdq      gap      omega  full diag
   1    -63.4737265 -0.634737E+02  0.421E-01    4.68       0.0  T
   2    -63.4741652 -0.438645E-03  0.230E-01    4.75       1.0  T
   3    -63.4741447  0.204127E-04  0.654E-02    4.69       1.0  T
   4    -63.4742220 -0.772539E-04  0.234E-02    4.73       1.0  T
   5    -63.4742273 -0.534943E-05  0.127E-02    4.72       1.1  T
   6    -63.4742275 -0.195332E-06  0.570E-03    4.72       2.5  T
   7    -63.4742276 -0.726379E-07  0.158E-03    4.72       8.8  T
   8    -63.4742276 -0.114894E-07  0.824E-04    4.72      17.0  T
   9    -63.4742276 -0.136250E-08  0.289E-04    4.72      48.5  T
     SCC iter.                  ...        0 min,  0.089 sec
     gradient                   ...        0 min,  0.060 sec
 * total energy  :   -62.7992631 Eh     change       -0.9329294E-01 Eh
   gradient norm :     0.1337928 Eh/α   predicted    -0.9124350E-01 (  -2.20%)
   displ. norm   :     0.8385914 α      lambda       -0.8349475E-01
   maximum displ.:     0.3449516 α      in ANC's #26, #63, #18, ...

........................................................................
.............................. CYCLE   14 ..............................
........................................................................

 iter      E             dE          RMSdq      gap      omega  full diag
   1    -63.5404579 -0.635405E+02  0.388E-01    4.47       0.0  T
   2    -63.5408466 -0.388717E-03  0.208E-01    4.55       1.0  T
   3    -63.5407921  0.544963E-04  0.766E-02    4.48       1.0  T
   4    -63.5409197 -0.127569E-03  0.206E-02    4.52       1.0  T
   5    -63.5409240 -0.427105E-05  0.112E-02    4.52       1.2  T
   6    -63.5409242 -0.239056E-06  0.503E-03    4.52       2.8  T
   7    -63.5409243 -0.564180E-07  0.156E-03    4.52       9.0  T
   8    -63.5409243 -0.213593E-07  0.613E-04    4.52      22.8  T
   9    -63.5409243 -0.948958E-09  0.272E-04    4.52      51.4  T
     SCC iter.                  ...        0 min,  0.094 sec
     gradient                   ...        0 min,  0.065 sec
 * total energy  :   -62.8716248 Eh     change       -0.7236173E-01 Eh
   gradient norm :     0.1105542 Eh/α   predicted    -0.7110562E-01 (  -1.74%)
   displ. norm   :     0.8167175 α      lambda       -0.6272090E-01
   maximum displ.:     0.3654890 α      in ANC's #26, #18, #63, ...

........................................................................
.............................. CYCLE   15 ..............................
........................................................................

 iter      E             dE          RMSdq      gap      omega  full diag
   1    -63.5919393 -0.635919E+02  0.340E-01    4.33       0.0  T
   2    -63.5922103 -0.271070E-03  0.179E-01    4.40       1.0  T
   3    -63.5921490  0.613157E-04  0.744E-02    4.33       1.0  T
   4    -63.5922748 -0.125797E-03  0.176E-02    4.37       1.0  T
   5    -63.5922782 -0.338309E-05  0.980E-03    4.37       1.4  T
   6    -63.5922784 -0.203838E-06  0.464E-03    4.36       3.0  T
   7    -63.5922785 -0.578797E-07  0.145E-03    4.37       9.6  T
   8    -63.5922785 -0.191259E-07  0.525E-04    4.36      26.7  T
   9    -63.5922785 -0.852474E-09  0.220E-04    4.36      63.7  T
     SCC iter.                  ...        0 min,  0.167 sec
     gradient                   ...        0 min,  0.066 sec
 * total energy  :   -62.9250759 Eh     change       -0.5345110E-01 Eh
   gradient norm :     0.0927747 Eh/α   predicted    -0.5227870E-01 (  -2.19%)
   displ. norm   :     0.7942150 α      lambda       -0.4651771E-01
   maximum displ.:     0.3851934 α      in ANC's #26, #18, #40, ...

........................................................................
.............................. CYCLE   16 ..............................
........................................................................

 iter      E             dE          RMSdq      gap      omega  full diag
   1    -63.6339380 -0.636339E+02  0.298E-01    4.22       0.0  T
   2    -63.6340965 -0.158510E-03  0.154E-01    4.27       1.0  T
   3    -63.6340402  0.563013E-04  0.636E-02    4.22       1.0  T
   4    -63.6341378 -0.975562E-04  0.149E-02    4.25       1.0  T
   5    -63.6341401 -0.234566E-05  0.841E-03    4.25       1.7  T
   6    -63.6341402 -0.974902E-07  0.341E-03    4.25       4.1  T
   7    -63.6341403 -0.322042E-07  0.893E-04    4.25      15.7  T
   8    -63.6341403 -0.907848E-08  0.332E-04    4.25      42.2  T
     SCC iter.                  ...        0 min,  0.148 sec
     gradient                   ...        0 min,  0.056 sec
 * total energy  :   -62.9649455 Eh     change       -0.3986961E-01 Eh
   gradient norm :     0.0900208 Eh/α   predicted    -0.3792999E-01 (  -4.86%)
   displ. norm   :     0.7833204 α      lambda       -0.3832602E-01
   maximum displ.:     0.3840032 α      in ANC's #26, #40, #18, ...

........................................................................
.............................. CYCLE   17 ..............................
........................................................................

 iter      E             dE          RMSdq      gap      omega  full diag
   1    -63.6733796 -0.636734E+02  0.277E-01    4.14       0.0  T
   2    -63.6734831 -0.103525E-03  0.141E-01    4.17       1.0  T
   3    -63.6734602  0.228672E-04  0.489E-02    4.13       1.0  T
   4    -63.6735018 -0.416119E-04  0.170E-02    4.15       1.0  T
   5    -63.6735050 -0.313903E-05  0.942E-03    4.15       1.5  T
   6    -63.6735050 -0.710481E-07  0.239E-03    4.15       5.9  T
   7    -63.6735051 -0.251054E-07  0.626E-04    4.15      22.4  T
   8    -63.6735051 -0.475378E-08  0.264E-04    4.15      53.0  T
     SCC iter.                  ...        0 min,  0.066 sec
     gradient                   ...        0 min,  0.053 sec
 * total energy  :   -62.9968280 Eh     change       -0.3188251E-01 Eh
   gradient norm :     0.0886959 Eh/α   predicted    -0.3092125E-01 (  -3.02%)
   displ. norm   :     0.8443618 α      lambda       -0.3852492E-01
   maximum displ.:     0.3512237 α      in ANC's #26, #18, #40, ...

........................................................................
.............................. CYCLE   18 ..............................
........................................................................

 iter      E             dE          RMSdq      gap      omega  full diag
   1    -63.6866699 -0.636867E+02  0.319E-01    4.09       0.0  T
   2    -63.6868322 -0.162330E-03  0.174E-01    4.09       1.0  T
   3    -63.6868372 -0.505524E-05  0.403E-02    4.08       1.0  T
   4    -63.6868427 -0.545506E-05  0.177E-02    4.09       1.0  T
   5    -63.6868459 -0.323814E-05  0.960E-03    4.08       1.5  T
   6    -63.6868463 -0.370414E-06  0.234E-03    4.08       6.0  T
   7    -63.6868464 -0.575428E-07  0.650E-04    4.08      21.5  T
   8    -63.6868464 -0.413035E-08  0.316E-04    4.08      44.3  T
     SCC iter.                  ...        0 min,  0.074 sec
     gradient                   ...        0 min,  0.052 sec
 * total energy  :   -63.0224300 Eh     change       -0.2560197E-01 Eh
   gradient norm :     0.0936688 Eh/α   predicted    -0.3299558E-01 (  28.88%)
   displ. norm   :     0.6909980 α      lambda       -0.2963011E-01
   maximum displ.:     0.3300449 α      in ANC's #26, #40, #88, ...

........................................................................
.............................. CYCLE   19 ..............................
........................................................................

 iter      E             dE          RMSdq      gap      omega  full diag
   1    -63.7169046 -0.637169E+02  0.245E-01    3.98       0.0  T
   2    -63.7169890 -0.843998E-04  0.133E-01    3.96       1.0  T
   3    -63.7169965 -0.745585E-05  0.281E-02    3.96       1.0  T
   4    -63.7169981 -0.160936E-05  0.139E-02    3.96       1.0  T
   5    -63.7169984 -0.350947E-06  0.640E-03    3.96       2.2  T
   6    -63.7169984 -0.292707E-08  0.236E-03    3.96       5.9  T
   7    -63.7169985 -0.107934E-06  0.651E-04    3.96      21.5  T
   8    -63.7169986 -0.111710E-07  0.274E-04    3.96      51.1  T
     SCC iter.                  ...        0 min,  0.108 sec
     gradient                   ...        0 min,  0.097 sec
 * total energy  :   -63.0462792 Eh     change       -0.2384924E-01 Eh
   gradient norm :     0.0653782 Eh/α   predicted    -0.2188890E-01 (  -8.22%)
   displ. norm   :     0.7504866 α      lambda       -0.2524392E-01
   maximum displ.:     0.2631078 α      in ANC's #40, #26, #15, ...

........................................................................
.............................. CYCLE   20 ..............................
........................................................................

 iter      E             dE          RMSdq      gap      omega  full diag
   1    -63.7345227 -0.637345E+02  0.208E-01    3.89       0.0  T
   2    -63.7346163 -0.935664E-04  0.116E-01    3.84       1.0  T
   3    -63.7346176 -0.131892E-05  0.301E-02    3.85       1.0  T
   4    -63.7346277 -0.100570E-04  0.154E-02    3.83       1.0  T
   5    -63.7346297 -0.201795E-05  0.113E-02    3.84       1.2  T
   6    -63.7346304 -0.713041E-06  0.369E-03    3.84       3.8  T
   7    -63.7346305 -0.605625E-07  0.881E-04    3.84      15.9  T
   8    -63.7346305 -0.625582E-08  0.391E-04    3.84      35.8  T
     SCC iter.                  ...        0 min,  0.125 sec
     gradient                   ...        0 min,  0.051 sec
 * total energy  :   -63.0652541 Eh     change       -0.1897487E-01 Eh
   gradient norm :     0.0610759 Eh/α   predicted    -0.1973102E-01 (   3.99%)
   displ. norm   :     0.7454914 α      lambda       -0.2029303E-01
   maximum displ.:     0.2640653 α      in ANC's #26, #15, #40, ...
 * RMSD in coord.:     1.6826629 α      energy gain  -0.2592921E+02 Eh

generating ANC from exact Hessian ...
Using Lindh-Hessian (1995)
 Shifting diagonal of input Hessian by    1.2369396279167380E-002
 Lowest  eigenvalues of input Hessian
    0.010000    0.010299    0.011170    0.011258    0.011932    0.012083
    0.012153    0.012214    0.012253    0.012256    0.012326    0.000000
    0.000000    0.000000    0.000000    0.000000    0.000000    0.012575
 Highest eigenvalues
    1.408536    1.414072    1.421938    1.421939    1.428021    1.438650


........................................................................
.............................. CYCLE   21 ..............................
........................................................................

 iter      E             dE          RMSdq      gap      omega  full diag
   1    -63.7516649 -0.637517E+02  0.191E-01    3.85       0.0  T
   2    -63.7517428 -0.778921E-04  0.111E-01    3.79       1.0  T
   3    -63.7517257  0.171399E-04  0.346E-02    3.81       1.0  T
   4    -63.7517570 -0.313016E-04  0.153E-02    3.79       1.0  T
   5    -63.7517571 -0.553951E-07  0.120E-02    3.79       1.2  T
   6    -63.7517576 -0.509199E-06  0.497E-03    3.79       2.8  T
   7    -63.7517578 -0.209124E-06  0.804E-04    3.79      17.4  T
   8    -63.7517578 -0.175013E-08  0.466E-04    3.79      30.1  T
     SCC iter.                  ...        0 min,  0.089 sec
     gradient                   ...        0 min,  0.076 sec
 * total energy  :   -63.0814620 Eh     change       -0.1620795E-01 Eh
   gradient norm :     0.0506338 Eh/α   predicted     0.0000000E+00 (-100.00%)
   displ. norm   :     0.6275387 α      lambda       -0.1862936E-01
   maximum displ.:     0.3497311 α      in ANC's #31, #26, #4, ...

........................................................................
.............................. CYCLE   22 ..............................
........................................................................

 iter      E             dE          RMSdq      gap      omega  full diag
   1    -63.7756094 -0.637756E+02  0.196E-01    3.99       0.0  T
   2    -63.7756454 -0.360176E-04  0.115E-01    3.98       1.0  T
   3    -63.7756483 -0.291753E-05  0.172E-02    4.01       1.0  T
   4    -63.7756518 -0.344350E-05  0.649E-03    4.00       2.2  T
   5    -63.7756520 -0.207521E-06  0.383E-03    4.00       3.7  T
   6    -63.7756521 -0.175863E-06  0.201E-03    4.00       7.0  T
   7    -63.7756521 -0.991582E-08  0.684E-04    4.00      20.5  T
   8    -63.7756521 -0.189637E-09  0.341E-04    4.00      41.0  T
     SCC iter.                  ...        0 min,  0.067 sec
     gradient                   ...        0 min,  0.055 sec
 * total energy  :   -63.0971401 Eh     change       -0.1567811E-01 Eh
   gradient norm :     0.0274914 Eh/α   predicted    -0.1298289E-01 ( -17.19%)
   displ. norm   :     0.8052246 α      lambda       -0.1649853E-01
   maximum displ.:     0.4510164 α      in ANC's #31, #26, #5, ...

........................................................................
.............................. CYCLE   23 ..............................
........................................................................

 iter      E             dE          RMSdq      gap      omega  full diag
   1    -63.7920022 -0.637920E+02  0.219E-01    4.26       0.0  T
   2    -63.7920565 -0.543157E-04  0.127E-01    4.26       1.0  T
   3    -63.7920548  0.167605E-05  0.225E-02    4.29       1.0  T
   4    -63.7920629 -0.813214E-05  0.690E-03    4.27       2.0  T
   5    -63.7920638 -0.876092E-06  0.318E-03    4.27       4.4  T
   6    -63.7920639 -0.114324E-06  0.131E-03    4.27      10.7  T
   7    -63.7920639 -0.404973E-08  0.415E-04    4.27      33.7  T
   8    -63.7920639 -0.833275E-09  0.147E-04    4.27      95.4  T
     SCC iter.                  ...        0 min,  0.087 sec
     gradient                   ...        0 min,  0.096 sec
 * total energy  :   -63.1113443 Eh     change       -0.1420414E-01 Eh
   gradient norm :     0.0225806 Eh/α   predicted    -0.1359798E-01 (  -4.27%)
   displ. norm   :     0.8417723 α      lambda       -0.1331948E-01
   maximum displ.:     0.4774221 α      in ANC's #31, #26, #5, ...

........................................................................
.............................. CYCLE   24 ..............................
........................................................................

 iter      E             dE          RMSdq      gap      omega  full diag
   1    -63.8030593 -0.638031E+02  0.186E-01    4.44       0.0  T
   2    -63.8031083 -0.490150E-04  0.110E-01    4.41       1.0  T
   3    -63.8030978  0.104412E-04  0.263E-02    4.45       1.0  T
   4    -63.8031154 -0.175681E-04  0.869E-03    4.43       1.6  T
   5    -63.8031157 -0.268886E-06  0.521E-03    4.43       2.7  T
   6    -63.8031158 -0.143443E-06  0.168E-03    4.43       8.3  T
   7    -63.8031158 -0.145182E-07  0.520E-04    4.43      26.9  T
   8    -63.8031158 -0.179530E-08  0.203E-04    4.43      69.0  T
     SCC iter.                  ...        0 min,  0.096 sec
     gradient                   ...        0 min,  0.053 sec
 * total energy  :   -63.1234093 Eh     change       -0.1206506E-01 Eh
   gradient norm :     0.0228051 Eh/α   predicted    -0.1137871E-01 (  -5.69%)
   displ. norm   :     0.8764766 α      lambda       -0.1213534E-01
   maximum displ.:     0.4869796 α      in ANC's #31, #5, #26, ...

........................................................................
.............................. CYCLE   25 ..............................
........................................................................

 iter      E             dE          RMSdq      gap      omega  full diag
   1    -63.8135717 -0.638136E+02  0.179E-01    4.54       0.0  T
   2    -63.8136435 -0.717460E-04  0.109E-01    4.50       1.0  T
   3    -63.8136255  0.179973E-04  0.356E-02    4.53       1.0  T
   4    -63.8136558 -0.303501E-04  0.116E-02    4.51       1.2  T
   5    -63.8136559 -0.606205E-07  0.664E-03    4.51       2.1  T
   6    -63.8136561 -0.216510E-06  0.169E-03    4.51       8.3  T
   7    -63.8136561 -0.196517E-07  0.608E-04    4.51      23.0  T
   8    -63.8136561 -0.226892E-08  0.259E-04    4.51      54.0  T
     SCC iter.                  ...        0 min,  0.092 sec
     gradient                   ...        0 min,  0.097 sec
 * total energy  :   -63.1346288 Eh     change       -0.1121949E-01 Eh
   gradient norm :     0.0190534 Eh/α   predicted    -0.1072893E-01 (  -4.37%)
   displ. norm   :     0.9023041 α      lambda       -0.1108029E-01
   maximum displ.:     0.4739983 α      in ANC's #31, #5, #26, ...

........................................................................
.............................. CYCLE   26 ..............................
........................................................................

 iter      E             dE          RMSdq      gap      omega  full diag
   1    -63.8226840 -0.638227E+02  0.180E-01    4.63       0.0  T
   2    -63.8227790 -0.949291E-04  0.107E-01    4.57       1.0  T
   3    -63.8227654  0.136064E-04  0.447E-02    4.61       1.0  T
   4    -63.8227949 -0.295846E-04  0.146E-02    4.59       1.0  T
   5    -63.8227951 -0.179850E-06  0.753E-03    4.59       1.9  T
   6    -63.8227954 -0.295585E-06  0.146E-03    4.59       9.6  T
   7    -63.8227954 -0.170519E-07  0.598E-04    4.58      23.4  T
   8    -63.8227954 -0.186189E-08  0.268E-04    4.59      52.2  T
     SCC iter.                  ...        0 min,  0.102 sec
     gradient                   ...        0 min,  0.093 sec
 * total energy  :   -63.1448476 Eh     change       -0.1021881E-01 Eh
   gradient norm :     0.0145900 Eh/α   predicted    -0.1005067E-01 (  -1.65%)
   displ. norm   :     0.9094031 α      lambda       -0.9821275E-02
   maximum displ.:     0.5196765 α      in ANC's #5, #31, #26, ...

........................................................................
.............................. CYCLE   27 ..............................
........................................................................

 iter      E             dE          RMSdq      gap      omega  full diag
   1    -63.8325181 -0.638325E+02  0.191E-01    4.76       0.0  T
   2    -63.8326386 -0.120511E-03  0.109E-01    4.70       1.0  T
   3    -63.8326307  0.798773E-05  0.548E-02    4.73       1.0  T
   4    -63.8326553 -0.246877E-04  0.182E-02    4.72       1.0  T
   5    -63.8326557 -0.336836E-06  0.859E-03    4.71       1.6  T
   6    -63.8326561 -0.388492E-06  0.130E-03    4.71      10.8  T
   7    -63.8326561 -0.148918E-07  0.534E-04    4.71      26.2  T
   8    -63.8326561 -0.132927E-08  0.250E-04    4.71      55.9  T
     SCC iter.                  ...        0 min,  0.139 sec
     gradient                   ...        0 min,  0.065 sec
 * total energy  :   -63.1540272 Eh     change       -0.9179592E-02 Eh
   gradient norm :     0.0125257 Eh/α   predicted    -0.8971806E-02 (  -2.26%)
   displ. norm   :     0.9397345 α      lambda       -0.9162071E-02
   maximum displ.:     0.5828210 α      in ANC's #5, #31, #4, ...

........................................................................
.............................. CYCLE   28 ..............................
........................................................................

 iter      E             dE          RMSdq      gap      omega  full diag
   1    -63.8351365 -0.638351E+02  0.197E-01    4.96       0.0  T
   2    -63.8352561 -0.119600E-03  0.113E-01    4.90       1.0  T
   3    -63.8352507  0.534491E-05  0.557E-02    4.93       1.0  T
   4    -63.8352717 -0.209521E-04  0.189E-02    4.91       1.0  T
   5    -63.8352724 -0.675047E-06  0.657E-03    4.91       2.1  T
   6    -63.8352725 -0.185467E-06  0.120E-03    4.91      11.7  T
   7    -63.8352725 -0.127925E-07  0.373E-04    4.91      37.6  T
   8    -63.8352725 -0.652399E-09  0.188E-04    4.91      74.6  T
     SCC iter.                  ...        0 min,  0.146 sec
     gradient                   ...        0 min,  0.064 sec
 * total energy  :   -63.1621602 Eh     change       -0.8132978E-02 Eh
   gradient norm :     0.0215761 Eh/α   predicted    -0.8626559E-02 (   6.07%)
   displ. norm   :     0.8872976 α      lambda       -0.8584807E-02
   maximum displ.:     0.6124520 α      in ANC's #5, #4, #31, ...

........................................................................
.............................. CYCLE   29 ..............................
........................................................................

 iter      E             dE          RMSdq      gap      omega  full diag
   1    -63.8480138 -0.638480E+02  0.196E-01    5.20       0.0  T
   2    -63.8481349 -0.121084E-03  0.112E-01    5.15       1.0  T
   3    -63.8481334  0.155633E-05  0.635E-02    5.18       1.0  T
   4    -63.8481469 -0.135303E-04  0.277E-02    5.16       1.0  T
   5    -63.8481478 -0.926148E-06  0.787E-03    5.16       1.8  T
   6    -63.8481482 -0.367627E-06  0.127E-03    5.16      11.1  T
   7    -63.8481482 -0.104959E-07  0.399E-04    5.16      35.1  T
   8    -63.8481482 -0.102001E-08  0.226E-04    5.16      62.1  T
     SCC iter.                  ...        0 min,  0.131 sec
     gradient                   ...        0 min,  0.090 sec
 * total energy  :   -63.1695801 Eh     change       -0.7419917E-02 Eh
   gradient norm :     0.0172771 Eh/α   predicted    -0.7671800E-02 (   3.39%)
   displ. norm   :     0.8886226 α      lambda       -0.7219573E-02
   maximum displ.:     0.6302451 α      in ANC's #5, #4, #31, ...

........................................................................
.............................. CYCLE   30 ..............................
........................................................................

 iter      E             dE          RMSdq      gap      omega  full diag
   1    -63.8521075 -0.638521E+02  0.164E-01    5.49       0.0  T
   2    -63.8521969 -0.893481E-04  0.982E-02    5.44       1.0  T
   3    -63.8521982 -0.130319E-05  0.555E-02    5.46       1.0  T
   4    -63.8522062 -0.802169E-05  0.289E-02    5.45       1.0  T
   5    -63.8522076 -0.138187E-05  0.619E-03    5.45       2.3  T
   6    -63.8522077 -0.162285E-06  0.114E-03    5.45      12.3  T
   7    -63.8522078 -0.146720E-07  0.376E-04    5.45      37.2  T
   8    -63.8522078 -0.323432E-09  0.199E-04    5.45      70.5  T
     SCC iter.                  ...        0 min,  0.096 sec
     gradient                   ...        0 min,  0.100 sec
 * total energy  :   -63.1761602 Eh     change       -0.6580044E-02 Eh
   gradient norm :     0.0136428 Eh/α   predicted    -0.6460256E-02 (  -1.82%)
   displ. norm   :     0.8487786 α      lambda       -0.6243966E-02
   maximum displ.:     0.6285850 α      in ANC's #5, #4, #25, ...

........................................................................
.............................. CYCLE   31 ..............................
........................................................................

 iter      E             dE          RMSdq      gap      omega  full diag
   1    -63.8590619 -0.638591E+02  0.147E-01    5.77       0.0  T
   2    -63.8591494 -0.874665E-04  0.914E-02    5.72       1.0  T
   3    -63.8591553 -0.593622E-05  0.578E-02    5.73       1.0  T
   4    -63.8591594 -0.402835E-05  0.360E-02    5.72       1.0  T
   5    -63.8591611 -0.168474E-05  0.706E-03    5.72       2.0  T
   6    -63.8591613 -0.236943E-06  0.121E-03    5.72      11.6  T
   7    -63.8591613 -0.154692E-07  0.511E-04    5.72      27.4  T
   8    -63.8591613 -0.483098E-09  0.259E-04    5.72      54.1  T
     SCC iter.                  ...        0 min,  0.159 sec
     gradient                   ...        0 min,  0.096 sec
 * total energy  :   -63.1817069 Eh     change       -0.5546740E-02 Eh
   gradient norm :     0.0142891 Eh/α   predicted    -0.5371139E-02 (  -3.17%)
   displ. norm   :     0.8631885 α      lambda       -0.5589512E-02
   maximum displ.:     0.6213900 α      in ANC's #5, #4, #25, ...

........................................................................
.............................. CYCLE   32 ..............................
........................................................................

 iter      E             dE          RMSdq      gap      omega  full diag
   1    -63.8624957 -0.638625E+02  0.122E-01    6.03       0.0  T
   2    -63.8625569 -0.611360E-04  0.773E-02    5.99       1.0  T
   3    -63.8625633 -0.638979E-05  0.499E-02    6.01       1.0  T
   4    -63.8625654 -0.211540E-05  0.396E-02    6.00       1.0  T
   5    -63.8625664 -0.106418E-05  0.659E-03    6.00       2.1  T
   6    -63.8625666 -0.201799E-06  0.122E-03    6.00      11.5  T
   7    -63.8625667 -0.126031E-07  0.652E-04    6.00      21.5  T
   8    -63.8625667 -0.731497E-09  0.247E-04    6.00      56.7  T
     SCC iter.                  ...        0 min,  0.143 sec
     gradient                   ...        0 min,  0.064 sec
 * total energy  :   -63.1854133 Eh     change       -0.3706413E-02 Eh
   gradient norm :     0.0323589 Eh/α   predicted    -0.4877115E-02 (  31.59%)
   displ. norm   :     0.7074267 α      lambda       -0.4789293E-02
   maximum displ.:     0.5098975 α      in ANC's #5, #4, #26, ...

........................................................................
.............................. CYCLE   33 ..............................
........................................................................

 iter      E             dE          RMSdq      gap      omega  full diag
   1    -63.8641836 -0.638642E+02  0.116E-01    6.22       0.0  T
   2    -63.8642453 -0.617120E-04  0.729E-02    6.18       1.0  T
   3    -63.8642517 -0.635826E-05  0.438E-02    6.18       1.0  T
   4    -63.8642535 -0.184203E-05  0.329E-02    6.18       1.0  T
   5    -63.8642543 -0.751266E-06  0.624E-03    6.18       2.2  T
   6    -63.8642544 -0.125609E-06  0.986E-04    6.18      14.2  T
   7    -63.8642544 -0.119064E-07  0.356E-04    6.18      39.3  T
     SCC iter.                  ...        0 min,  0.115 sec
     gradient                   ...        0 min,  0.068 sec
 * total energy  :   -63.1884161 Eh     change       -0.3002812E-02 Eh
   gradient norm :     0.0178067 Eh/α   predicted    -0.3593056E-02 (  19.66%)
   displ. norm   :     0.5972092 α      lambda       -0.2015180E-02
   maximum displ.:     0.4088646 α      in ANC's #5, #4, #31, ...

........................................................................
.............................. CYCLE   34 ..............................
........................................................................

 iter      E             dE          RMSdq      gap      omega  full diag
   1    -63.8706185 -0.638706E+02  0.622E-02    6.25       0.0  T
   2    -63.8706271 -0.855630E-05  0.346E-02    6.24       1.0  T
   3    -63.8706286 -0.149097E-05  0.230E-02    6.24       1.0  T
   4    -63.8706287 -0.112918E-06  0.145E-02    6.24       1.0  T
   5    -63.8706289 -0.186309E-06  0.186E-03    6.24       7.5  T
   6    -63.8706289 -0.220666E-07  0.481E-04    6.24      29.1  T
   7    -63.8706289 -0.100708E-08  0.311E-04    6.24      45.0  T
     SCC iter.                  ...        0 min,  0.132 sec
     gradient                   ...        0 min,  0.071 sec
 * total energy  :   -63.1898197 Eh     change       -0.1403522E-02 Eh
   gradient norm :     0.0128993 Eh/α   predicted    -0.1366959E-02 (  -2.61%)
   displ. norm   :     0.6741192 α      lambda       -0.2263912E-02
   maximum displ.:     0.3922081 α      in ANC's #5, #4, #26, ...

........................................................................
.............................. CYCLE   35 ..............................
........................................................................

 iter      E             dE          RMSdq      gap      omega  full diag
   1    -63.8557579 -0.638558E+02  0.109E-01    6.17       0.0  T
   2    -63.8557762 -0.183567E-04  0.677E-02    6.15       1.0  T
   3    -63.8557814 -0.518741E-05  0.305E-02    6.15       1.0  T
   4    -63.8557818 -0.414299E-06  0.155E-02    6.15       1.0  T
   5    -63.8557820 -0.196838E-06  0.252E-03    6.15       5.5  T
   6    -63.8557821 -0.464774E-07  0.489E-04    6.15      28.7  T
   7    -63.8557821 -0.963986E-09  0.310E-04    6.15      45.1  T
     SCC iter.                  ...        0 min,  0.142 sec
     gradient                   ...        0 min,  0.068 sec
 * total energy  :   -63.1899297 Eh     change       -0.1100733E-03 Eh
   gradient norm :     0.0441354 Eh/α   predicted    -0.1646361E-02 (1395.70%)
   displ. norm   :     0.2544512 α      lambda       -0.2773539E-02
   maximum displ.:     0.1127606 α      in ANC's #4, #28, #26, ...

........................................................................
.............................. CYCLE   36 ..............................
........................................................................

 iter      E             dE          RMSdq      gap      omega  full diag
   1    -63.8664910 -0.638665E+02  0.824E-02    6.00       0.0  T
   2    -63.8665030 -0.120211E-04  0.447E-02    6.02       1.0  T
   3    -63.8665047 -0.168325E-05  0.141E-02    6.02       1.0  T
   4    -63.8665052 -0.499466E-06  0.668E-03    6.02       2.1  T
   5    -63.8665052 -0.382653E-07  0.384E-03    6.02       3.6  T
   6    -63.8665053 -0.111669E-07  0.501E-04    6.02      28.0  T
   7    -63.8665053 -0.270460E-08  0.214E-04    6.02      65.6  T
     SCC iter.                  ...        0 min,  0.117 sec
     gradient                   ...        0 min,  0.051 sec
 * total energy  :   -63.1914570 Eh     change       -0.1527275E-02 Eh
   gradient norm :     0.0105531 Eh/α   predicted    -0.1476559E-02 (  -3.32%)
   displ. norm   :     0.3586930 α      lambda       -0.8694559E-03
   maximum displ.:     0.2106230 α      in ANC's #4, #26, #5, ...

........................................................................
.............................. CYCLE   37 ..............................
........................................................................

 iter      E             dE          RMSdq      gap      omega  full diag
   1    -63.8707318 -0.638707E+02  0.609E-02    5.89       0.0  T
   2    -63.8707353 -0.347636E-05  0.308E-02    5.89       1.0  T
   3    -63.8707357 -0.442356E-06  0.116E-02    5.89       1.2  T
   4    -63.8707358 -0.701449E-07  0.716E-03    5.89       2.0  T
   5    -63.8707359 -0.842757E-07  0.114E-03    5.89      12.3  T
   6    -63.8707359 -0.249673E-08  0.227E-04    5.89      61.8  T
   7    -63.8707359 -0.285446E-09  0.133E-04    5.89     105.0  T
     SCC iter.                  ...        0 min,  0.071 sec
     gradient                   ...        0 min,  0.093 sec
 * total energy  :   -63.1919379 Eh     change       -0.4808916E-03 Eh
   gradient norm :     0.0110760 Eh/α   predicted    -0.4906609E-03 (   2.03%)
   displ. norm   :     0.5055882 α      lambda       -0.7359674E-03
   maximum displ.:     0.2854517 α      in ANC's #4, #5, #31, ...

........................................................................
.............................. CYCLE   38 ..............................
........................................................................

 iter      E             dE          RMSdq      gap      omega  full diag
   1    -63.8693796 -0.638694E+02  0.561E-02    5.78       0.0  T
   2    -63.8693815 -0.193243E-05  0.322E-02    5.77       1.0  T
   3    -63.8693822 -0.666343E-06  0.872E-03    5.77       1.6  T
   4    -63.8693822 -0.257562E-07  0.351E-03    5.77       4.0  T
   5    -63.8693822 -0.141272E-07  0.639E-04    5.77      21.9  T
   6    -63.8693823 -0.370682E-08  0.199E-04    5.77      70.3  T
     SCC iter.                  ...        0 min,  0.079 sec
     gradient                   ...        0 min,  0.049 sec
 * total energy  :   -63.1924509 Eh     change       -0.5130234E-03 Eh
   gradient norm :     0.0069866 Eh/α   predicted    -0.4620508E-03 (  -9.94%)
   displ. norm   :     0.4113220 α      lambda       -0.4542532E-03
   maximum displ.:     0.2339965 α      in ANC's #4, #24, #5, ...

........................................................................
.............................. CYCLE   39 ..............................
........................................................................

 iter      E             dE          RMSdq      gap      omega  full diag
   1    -63.8680388 -0.638680E+02  0.600E-02    5.71       0.0  T
   2    -63.8680428 -0.399968E-05  0.364E-02    5.70       1.0  T
   3    -63.8680441 -0.129211E-05  0.814E-03    5.69       1.7  T
   4    -63.8680443 -0.128756E-06  0.420E-03    5.69       3.3  T
   5    -63.8680443 -0.113630E-07  0.123E-03    5.69      11.4  T
   6    -63.8680443 -0.823061E-08  0.367E-04    5.69      38.2  T
   7    -63.8680443 -0.193111E-09  0.163E-04    5.69      85.7  T
     SCC iter.                  ...        0 min,  0.072 sec
     gradient                   ...        0 min,  0.049 sec
 * total energy  :   -63.1924810 Eh     change       -0.3009315E-04 Eh
   gradient norm :     0.0201313 Eh/α   predicted    -0.2655559E-03 ( 782.45%)
   displ. norm   :     0.3861356 α      lambda       -0.1047363E-02
   maximum displ.:     0.2050011 α      in ANC's #4, #24, #31, ...

........................................................................
.............................. CYCLE   40 ..............................
........................................................................

 iter      E             dE          RMSdq      gap      omega  full diag
   1    -63.8667015 -0.638667E+02  0.857E-02    5.65       0.0  T
   2    -63.8667098 -0.830126E-05  0.516E-02    5.64       1.0  T
   3    -63.8667126 -0.280432E-05  0.855E-03    5.64       1.6  T
   4    -63.8667129 -0.299068E-06  0.454E-03    5.64       3.1  T
   5    -63.8667129 -0.266785E-07  0.191E-03    5.64       7.3  T
   6    -63.8667129 -0.129974E-07  0.576E-04    5.64      24.3  T
   7    -63.8667129 -0.539877E-09  0.230E-04    5.64      60.8  T
     SCC iter.                  ...        0 min,  0.128 sec
     gradient                   ...        0 min,  0.073 sec
 * total energy  :   -63.1924625 Eh     change        0.1847449E-04 Eh
   gradient norm :     0.0243113 Eh/α   predicted    -0.6017648E-03 (*******%)
   displ. norm   :     0.1686766 α      lambda       -0.9791250E-03
   maximum displ.:     0.0890310 α      in ANC's #18, #4, #26, ...

........................................................................
.............................. CYCLE   41 ..............................
........................................................................

 iter      E             dE          RMSdq      gap      omega  full diag
   1    -63.8697195 -0.638697E+02  0.541E-02    5.69       0.0  T
   2    -63.8697221 -0.260374E-05  0.322E-02    5.69       1.0  T
   3    -63.8697234 -0.122941E-05  0.474E-03    5.70       3.0  T
   4    -63.8697235 -0.837716E-07  0.204E-03    5.70       6.9  T
   5    -63.8697235 -0.722748E-08  0.121E-03    5.70      11.5  T
   6    -63.8697235 -0.360291E-08  0.287E-04    5.70      48.8  T
   7    -63.8697235 -0.692921E-10  0.122E-04    5.70     115.2  T
     SCC iter.                  ...        0 min,  0.092 sec
     gradient                   ...        0 min,  0.056 sec
 * total energy  :   -63.1927220 Eh     change       -0.2594643E-03 Eh
   gradient norm :     0.0182777 Eh/α   predicted    -0.5034959E-03 (  94.05%)
   displ. norm   :     0.1440169 α      lambda       -0.5700844E-03
   maximum displ.:     0.0729824 α      in ANC's #18, #4, #34, ...

........................................................................
.............................. CYCLE   42 ..............................
........................................................................

 iter      E             dE          RMSdq      gap      omega  full diag
   1    -63.8695425 -0.638695E+02  0.409E-02    5.76       0.0  T
   2    -63.8695455 -0.299516E-05  0.246E-02    5.75       1.0  T
   3    -63.8695462 -0.704163E-06  0.624E-03    5.75       2.2  T
   4    -63.8695464 -0.145638E-06  0.341E-03    5.75       4.1  T
   5    -63.8695464 -0.327827E-07  0.140E-03    5.75      10.0  T
   6    -63.8695464 -0.391240E-08  0.329E-04    5.75      42.6  T
   7    -63.8695464 -0.574516E-09  0.177E-04    5.75      79.0  T
     SCC iter.                  ...        0 min,  0.115 sec
     gradient                   ...        0 min,  0.087 sec
 * total energy  :   -63.1927893 Eh     change       -0.6729765E-04 Eh
   gradient norm :     0.0131708 Eh/α   predicted    -0.2909557E-03 ( 332.34%)
   displ. norm   :     0.0909956 α      lambda       -0.3104397E-03
   maximum displ.:     0.0496056 α      in ANC's #24, #34, #18, ...
 * RMSD in coord.:     1.6771278 α      energy gain  -0.1275352E+00 Eh

generating ANC from exact Hessian ...
Using Lindh-Hessian (1995)
 Shifting diagonal of input Hessian by    1.3110286628655765E-002
 Lowest  eigenvalues of input Hessian
    0.010000    0.012732    0.012853    0.012878    0.013024    0.013046
    0.000000    0.013080    0.000000    0.000000    0.000000    0.000000
    0.000000    0.013175    0.013311    0.013338    0.013388    0.013498
 Highest eigenvalues
    1.415137    1.419250    1.424766    1.427659    1.433655    1.457992


........................................................................
.............................. CYCLE   43 ..............................
........................................................................

 iter      E             dE          RMSdq      gap      omega  full diag
   1    -63.8699795 -0.638700E+02  0.259E-02    5.73       0.0  T
   2    -63.8699805 -0.977453E-06  0.159E-02    5.73       1.0  T
   3    -63.8699807 -0.237120E-06  0.221E-03    5.73       6.3  T
   4    -63.8699808 -0.458127E-07  0.123E-03    5.73      11.4  T
   5    -63.8699808 -0.693055E-08  0.665E-04    5.73      21.1  T
   6    -63.8699808 -0.106714E-08  0.128E-04    5.73     109.6  T
     SCC iter.                  ...        0 min,  0.090 sec
     gradient                   ...        0 min,  0.054 sec
 * total energy  :   -63.1929581 Eh     change       -0.1688190E-03 Eh
   gradient norm :     0.0062497 Eh/α   predicted     0.0000000E+00 (-100.00%)
   displ. norm   :     0.1295969 α      lambda       -0.3379787E-03
   maximum displ.:     0.0638675 α      in ANC's #35, #38, #26, ...

........................................................................
.............................. CYCLE   44 ..............................
........................................................................

 iter      E             dE          RMSdq      gap      omega  full diag
   1    -63.8696589 -0.638697E+02  0.507E-02    5.74       0.0  T
   2    -63.8696604 -0.142807E-05  0.308E-02    5.75       1.0  T
   3    -63.8696610 -0.645744E-06  0.313E-03    5.74       4.5  T
   4    -63.8696610 -0.375827E-07  0.163E-03    5.74       8.6  T
   5    -63.8696611 -0.336891E-08  0.304E-04    5.74      46.1  T
   6    -63.8696611 -0.160227E-09  0.937E-05    5.74     149.5  T
     SCC iter.                  ...        0 min,  0.119 sec
     gradient                   ...        0 min,  0.096 sec
 * total energy  :   -63.1932621 Eh     change       -0.3039901E-03 Eh
   gradient norm :     0.0048899 Eh/α   predicted    -0.1718620E-03 ( -43.46%)
   displ. norm   :     0.4598182 α      lambda       -0.9474243E-03
   maximum displ.:     0.2119980 α      in ANC's #38, #26, #35, ...

........................................................................
.............................. CYCLE   45 ..............................
........................................................................

 iter      E             dE          RMSdq      gap      omega  full diag
   1    -63.8603592 -0.638604E+02  0.194E-01    5.77       0.0  T
   2    -63.8603898 -0.305948E-04  0.114E-01    5.78       1.0  T
   3    -63.8603960 -0.617766E-05  0.126E-02    5.76       1.1  T
   4    -63.8603974 -0.141586E-05  0.608E-03    5.76       2.3  T
   5    -63.8603975 -0.101134E-06  0.273E-03    5.76       5.1  T
   6    -63.8603975 -0.672510E-08  0.734E-04    5.76      19.1  T
   7    -63.8603975 -0.301782E-09  0.353E-04    5.76      39.7  T
     SCC iter.                  ...        0 min,  0.090 sec
     gradient                   ...        0 min,  0.062 sec
 * total energy  :   -63.1927432 Eh     change        0.5189143E-03 Eh
   gradient norm :     0.0404364 Eh/α   predicted    -0.5738708E-03 (-210.59%)
   displ. norm   :     0.2424134 α      lambda       -0.2792891E-02
   maximum displ.:     0.1451743 α      in ANC's #38, #35, #26, ...

........................................................................
.............................. CYCLE   46 ..............................
........................................................................

 iter      E             dE          RMSdq      gap      omega  full diag
   1    -63.8701649 -0.638702E+02  0.131E-01    5.78       0.0  T
   2    -63.8701823 -0.174228E-04  0.775E-02    5.78       1.0  T
   3    -63.8701864 -0.408654E-05  0.931E-03    5.79       1.5  T
   4    -63.8701871 -0.725483E-06  0.511E-03    5.79       2.7  T
   5    -63.8701872 -0.672311E-07  0.295E-03    5.79       4.7  T
   6    -63.8701872 -0.614794E-08  0.521E-04    5.79      26.9  T
   7    -63.8701872 -0.162551E-09  0.233E-04    5.79      60.0  T
     SCC iter.                  ...        0 min,  0.129 sec
     gradient                   ...        0 min,  0.089 sec
 * total energy  :   -63.1936818 Eh     change       -0.9386053E-03 Eh
   gradient norm :     0.0034283 Eh/α   predicted    -0.1478506E-02 (  57.52%)
   displ. norm   :     0.1090510 α      lambda       -0.1548892E-03
   maximum displ.:     0.0536657 α      in ANC's #10, #11, #26, ...

........................................................................
.............................. CYCLE   47 ..............................
........................................................................

 iter      E             dE          RMSdq      gap      omega  full diag
   1    -63.8702106 -0.638702E+02  0.296E-02    5.80       0.0  T
   2    -63.8702109 -0.344421E-06  0.174E-02    5.80       1.0  T
   3    -63.8702110 -0.604413E-07  0.172E-03    5.80       8.1  T
   4    -63.8702110 -0.181422E-07  0.968E-04    5.80      14.5  T
   5    -63.8702110 -0.814879E-09  0.246E-04    5.80      57.0  T
     SCC iter.                  ...        0 min,  0.142 sec
     gradient                   ...        0 min,  0.093 sec
 * total energy  :   -63.1938268 Eh     change       -0.1449628E-03 Eh
   gradient norm :     0.0038015 Eh/α   predicted    -0.7838978E-04 ( -45.92%)
   displ. norm   :     0.5549457 α      lambda       -0.7070015E-03
   maximum displ.:     0.2859659 α      in ANC's #10, #11, #26, ...

........................................................................
.............................. CYCLE   48 ..............................
........................................................................

 iter      E             dE          RMSdq      gap      omega  full diag
   1    -63.8661497 -0.638661E+02  0.158E-01    5.83       0.0  T
   2    -63.8661622 -0.124918E-04  0.931E-02    5.84       1.0  T
   3    -63.8661636 -0.141588E-05  0.896E-03    5.83       1.6  T
   4    -63.8661644 -0.760206E-06  0.517E-03    5.84       2.7  T
   5    -63.8661644 -0.264941E-07  0.205E-03    5.84       6.8  T
   6    -63.8661644 -0.327120E-08  0.612E-04    5.84      22.9  T
   7    -63.8661644 -0.516657E-09  0.205E-04    5.84      68.1  T
     SCC iter.                  ...        0 min,  0.947 sec
     gradient                   ...        0 min,  0.147 sec
 * total energy  :   -63.1939535 Eh     change       -0.1267290E-03 Eh
   gradient norm :     0.0234675 Eh/α   predicted    -0.4623819E-03 ( 264.86%)
   displ. norm   :     0.1585640 α      lambda       -0.6610288E-03
   maximum displ.:     0.0922642 α      in ANC's #26, #11, #10, ...

........................................................................
.............................. CYCLE   49 ..............................
........................................................................

 iter      E             dE          RMSdq      gap      omega  full diag
   1    -63.8704496 -0.638704E+02  0.612E-02    5.84       0.0  T
   2    -63.8704527 -0.301213E-05  0.368E-02    5.84       1.0  T
   3    -63.8704533 -0.615771E-06  0.387E-03    5.84       3.6  T
   4    -63.8704534 -0.162928E-06  0.256E-03    5.84       5.5  T
   5    -63.8704534 -0.105963E-07  0.136E-03    5.84      10.3  T
   6    -63.8704534 -0.107912E-08  0.318E-04    5.84      44.0  T
   7    -63.8704534 -0.753744E-10  0.158E-04    5.84      88.7  T
     SCC iter.                  ...        0 min,  0.479 sec
     gradient                   ...        0 min,  0.067 sec
 * total energy  :   -63.1942102 Eh     change       -0.2566974E-03 Eh
   gradient norm :     0.0028996 Eh/α   predicted    -0.3388194E-03 (  31.99%)
   displ. norm   :     0.1525329 α      lambda       -0.1202082E-03
   maximum displ.:     0.0931978 α      in ANC's #10, #11, #26, ...

........................................................................
.............................. CYCLE   50 ..............................
........................................................................

 iter      E             dE          RMSdq      gap      omega  full diag
   1    -63.8705689 -0.638706E+02  0.391E-02    5.84       0.0  T
   2    -63.8705693 -0.417272E-06  0.229E-02    5.84       1.0  T
   3    -63.8705693 -0.375543E-07  0.210E-03    5.84       6.7  T
   4    -63.8705694 -0.269104E-07  0.109E-03    5.84      12.8  T
   5    -63.8705694 -0.104904E-08  0.313E-04    5.84      44.8  T
   6    -63.8705694 -0.169550E-09  0.986E-05    5.84     142.1  T
     SCC iter.                  ...        0 min,  0.627 sec
     gradient                   ...        0 min,  0.134 sec
 * total energy  :   -63.1943149 Eh     change       -0.1046948E-03 Eh
   gradient norm :     0.0032663 Eh/α   predicted    -0.6154323E-04 ( -41.22%)
   displ. norm   :     0.6410672 α      lambda       -0.4545866E-03
   maximum displ.:     0.3936072 α      in ANC's #10, #11, #26, ...

........................................................................
.............................. CYCLE   51 ..............................
........................................................................

 iter      E             dE          RMSdq      gap      omega  full diag
   1    -63.8674457 -0.638674E+02  0.171E-01    5.80       0.0  T
   2    -63.8674542 -0.850951E-05  0.101E-01    5.82       1.0  T
   3    -63.8674546 -0.377958E-06  0.868E-03    5.81       1.6  T
   4    -63.8674552 -0.681462E-06  0.422E-03    5.82       3.3  T
   5    -63.8674553 -0.141805E-07  0.138E-03    5.82      10.2  T
   6    -63.8674553 -0.174378E-08  0.479E-04    5.82      29.2  T
   7    -63.8674553 -0.738027E-09  0.153E-04    5.82      91.8  T
     SCC iter.                  ...        0 min,  0.814 sec
     gradient                   ...        0 min,  0.138 sec
 * total energy  :   -63.1942752 Eh     change        0.3965955E-04 Eh
[...]
          :  restarted?                      false          :
          :  GBSA solvation                   true          :
          :  PC potential                    false          :
          :  electronic temp.          300.0000000     K    :
          :  accuracy                    1.0000000          :
          :  -> integral cutoff          0.2500000E+02      :
          :  -> integral neglect         0.1000000E-07      :
          :  -> SCF convergence          0.1000000E-05 Eh   :
          :  -> wf. convergence          0.1000000E-03 e    :
          :  Broyden damping             0.4000000          :
          :  net charge                          2          :
          :  unpaired electrons                  0          :
          ...................................................

 iter      E             dE          RMSdq      gap      omega  full diag
   1    -63.8837804 -0.638838E+02  0.441E-05    5.74       0.0  T
   2    -63.8837804 -0.448352E-11  0.273E-05    5.74     512.9  T
   3    -63.8837804 -0.376588E-12  0.834E-06    5.74    1678.6  T

   *** convergence criteria satisfied after 3 iterations ***

         #    Occupation            Energy/Eh            Energy/eV
      -------------------------------------------------------------
         1        2.0000           -0.7160166             -19.4838
       ...           ...                  ...                  ...
        49        2.0000           -0.4326160             -11.7721
        50        2.0000           -0.4306236             -11.7179
        51        2.0000           -0.4247493             -11.5580
        52        2.0000           -0.4185698             -11.3899
        53        2.0000           -0.4161656             -11.3244
        54        2.0000           -0.4146209             -11.2824
        55        2.0000           -0.4134425             -11.2503 (HOMO)
        56                         -0.2025576              -5.5119 (LUMO)
        57                         -0.0122413              -0.3331
        58                          0.0168601               0.4588
        59                          0.0409601               1.1146
        60                          0.0541954               1.4747
       ...                                ...                  ...
       102                          1.0444329              28.4205
      -------------------------------------------------------------
                  HL-Gap            0.2108849 Eh            5.7385 eV
             Fermi-level           -0.3080001 Eh           -8.3811 eV

 SCC (total)                   0 d,  0 h,  0 min,  0.147 sec
 SCC setup                      ...        0 min,  0.004 sec (  2.501%)
 Dispersion                     ...        0 min,  0.001 sec (  0.453%)
 classical contributions        ...        0 min,  0.000 sec (  0.149%)
 integral evaluation            ...        0 min,  0.011 sec (  7.738%)
 iterations                     ...        0 min,  0.045 sec ( 30.668%)
 molecular gradient             ...        0 min,  0.079 sec ( 53.702%)
 printout                       ...        0 min,  0.007 sec (  4.771%)

         :::::::::::::::::::::::::::::::::::::::::::::::::::::
         ::                     SUMMARY                     ::
         :::::::::::::::::::::::::::::::::::::::::::::::::::::
         :: total energy             -63.206906728767 Eh    ::
         :: total w/o Gsasa/hb       -63.139540361950 Eh    ::
         :: gradient norm              0.000133956462 Eh/a0 ::
         :: HOMO-LUMO gap              5.738469219867 eV    ::
         ::.................................................::
         :: SCC energy               -63.883595910997 Eh    ::
         :: -> isotropic ES            0.496550561786 Eh    ::
         :: -> anisotropic ES         -0.015642713425 Eh    ::
         :: -> anisotropic XC          0.021256730862 Eh    ::
         :: -> dispersion             -0.031368877149 Eh    ::
         :: -> Gsolv                  -0.348851873404 Eh    ::
         ::    -> Gelec               -0.281485506588 Eh    ::
         ::    -> Gsasa               -0.000971016186 Eh    ::
         ::    -> Ghb                 -0.067476110329 Eh    ::
         ::    -> Gshift               0.001080759698 Eh    ::
         :: repulsion energy           0.676689182231 Eh    ::
         :: add. restraining           0.000000000000 Eh    ::
         :: total charge               2.000000000000 e     ::
         :::::::::::::::::::::::::::::::::::::::::::::::::::::

           -------------------------------------------------
          |                Property Printout                |
           -------------------------------------------------

    * Orbital Energies and Occupations

         #    Occupation            Energy/Eh            Energy/eV
      -------------------------------------------------------------
         1        2.0000           -0.7160166             -19.4838
       ...           ...                  ...                  ...
        43        2.0000           -0.4582248             -12.4689
        44        2.0000           -0.4528847             -12.3236
        45        2.0000           -0.4465188             -12.1504
        46        2.0000           -0.4379614             -11.9175
        47        2.0000           -0.4368541             -11.8874
        48        2.0000           -0.4352494             -11.8437
        49        2.0000           -0.4326160             -11.7721
        50        2.0000           -0.4306236             -11.7179
        51        2.0000           -0.4247493             -11.5580
        52        2.0000           -0.4185698             -11.3899
        53        2.0000           -0.4161656             -11.3244
        54        2.0000           -0.4146209             -11.2824
        55        2.0000           -0.4134425             -11.2503 (HOMO)
        56                         -0.2025576              -5.5119 (LUMO)
        57                         -0.0122413              -0.3331
        58                          0.0168601               0.4588
        59                          0.0409601               1.1146
        60                          0.0541954               1.4747
        61                          0.0755797               2.0566
        62                          0.0946837               2.5765
        63                          0.1102668               3.0005
        64                          0.1115405               3.0352
        65                          0.1166876               3.1752
        66                          0.1211244               3.2960
       ...                                ...                  ...
       102                          1.0444329              28.4205
      -------------------------------------------------------------
                  HL-Gap            0.2108849 Eh            5.7385 eV
             Fermi-level           -0.3080001 Eh           -8.3811 eV

     #   Z          covCN         q      C6AA      α(0)
     1   6 C        3.753    -0.132    23.102     6.854
     2   6 C        4.003    -0.085    22.033     6.668
     3   6 C        3.762     0.036    20.007     6.376
     4   6 C        3.752    -0.136    23.169     6.864
     5   6 C        3.801    -0.060    21.650     6.625
     6   6 C        3.803    -0.067    21.790     6.646
     7   6 C        3.803    -0.062    21.693     6.631
     8   6 C        3.803    -0.064    21.728     6.636
     9   6 C        3.801    -0.057    21.599     6.617
    10   6 C        3.752    -0.110    22.660     6.788
    11   1 H        0.925     0.048     2.346     2.395
    12   1 H        0.925     0.057     2.235     2.338
    13   1 H        0.925     0.054     2.265     2.353
    14   1 H        0.924     0.101     1.779     2.086
    15   1 H        1.274     0.138     1.465     1.890
    16   1 H        0.924     0.090     1.883     2.146
    17   1 H        0.924     0.077     2.012     2.218
    18   1 H        0.925     0.057     2.233     2.337
    19   1 H        0.925     0.048     2.342     2.393
    20   1 H        0.924     0.025     2.652     2.547
    21   1 H        0.924     0.022     2.701     2.570
    22   1 H        0.924     0.037     2.485     2.465
    23   1 H        0.924     0.035     2.516     2.481
    24   1 H        0.924     0.024     2.669     2.555
    25   1 H        0.924     0.023     2.691     2.565
    26   1 H        0.924     0.033     2.540     2.492
    27   1 H        0.924     0.032     2.555     2.500
    28   1 H        0.924     0.026     2.637     2.540
    29   1 H        0.924     0.026     2.649     2.545
    30   1 H        0.925     0.036     2.508     2.477
    31   1 H        0.925     0.036     2.501     2.473
    32   1 H        0.925     0.029     2.599     2.521
    33  48 Cd       4.113     0.461   190.470    26.491
    34   8 O        2.345    -0.355    19.949     6.032
    35   1 H        0.804     0.375     0.533     1.147
    36   1 H        0.925     0.069     2.100     2.266
    37   8 O        2.294    -0.550    23.928     6.607
    38   1 H        0.804     0.417     0.455     1.059
    39   1 H        0.804     0.408     0.470     1.077
    40   8 O        2.306    -0.549    23.912     6.604
    41   1 H        0.804     0.415     0.458     1.063
    42   1 H        0.804     0.419     0.452     1.056
    43   8 O        1.610    -0.684    27.297     7.052
    44   1 H        0.805     0.339     0.614     1.231
    45   1 H        0.805     0.353     0.581     1.197
    46   8 O        2.306    -0.542    23.751     6.582
    47   1 H        0.805     0.408     0.470     1.077
    48   1 H        0.804     0.419     0.451     1.055
    49   8 O        2.302    -0.544    23.803     6.589
    50   1 H        0.804     0.414     0.460     1.066
    51   1 H        0.804     0.410     0.467     1.073

 Mol. C6AA /au·bohr⁶  :      17473.917942
 Mol. C8AA /au·bohr⁸  :     438056.496636
 Mol. α(0) /au        :        199.916352


Wiberg/Mayer (AO) data.
largest (>0.10) Wiberg bond orders for each atom

 ---------------------------------------------------------------------------
     #   Z sym  total        # sym  WBO       # sym  WBO       # sym  WBO
 ---------------------------------------------------------------------------
     1   6 C    3.990 --     2 C    1.013    13 H    0.984    12 H    0.984
                            11 H    0.983
     2   6 C    3.993 --     1 C    1.013     3 C    1.007    14 H    0.952
                            15 H    0.860
     3   6 C    3.926 --     2 C    1.007    17 H    0.961    16 H    0.956
                            34 O    0.953
     4   6 C    3.991 --     5 C    1.017    19 H    0.985    18 H    0.984
                            36 H    0.979
     5   6 C    3.996 --     4 C    1.017     6 C    1.007    21 H    0.979
                            20 H    0.979
     6   6 C    3.996 --     5 C    1.007     7 C    1.006    23 H    0.977
                            22 H    0.977
     7   6 C    3.996 --     8 C    1.007     6 C    1.006    25 H    0.978
                            24 H    0.978
     8   6 C    3.997 --     9 C    1.008     7 C    1.007    27 H    0.977
                            26 H    0.977
     9   6 C    3.997 --    10 C    1.019     8 C    1.008    29 H    0.979
                            28 H    0.979
    10   6 C    3.996 --     9 C    1.019    30 H    0.988    31 H    0.988
                            32 H    0.988
    11   1 H    0.996 --     1 C    0.983
    12   1 H    0.997 --     1 C    0.984
    13   1 H    0.997 --     1 C    0.984
    14   1 H    0.990 --     2 C    0.952
    15   1 H    0.981 --     2 C    0.860
    16   1 H    0.990 --     3 C    0.956
    17   1 H    0.994 --     3 C    0.961
    18   1 H    0.997 --     4 C    0.984
    19   1 H    0.998 --     4 C    0.985
    20   1 H    0.999 --     5 C    0.979
    21   1 H    0.999 --     5 C    0.979
    22   1 H    0.999 --     6 C    0.977
    23   1 H    0.999 --     6 C    0.977
    24   1 H    0.999 --     7 C    0.978
    25   1 H    0.999 --     7 C    0.978
    26   1 H    0.999 --     8 C    0.977
    27   1 H    0.999 --     8 C    0.977
    28   1 H    0.999 --     9 C    0.979
    29   1 H    0.999 --     9 C    0.979
    30   1 H    0.999 --    10 C    0.988
    31   1 H    0.999 --    10 C    0.988
    32   1 H    0.999 --    10 C    0.988
    33  48 Cd   2.118 --    40 O    0.376    46 O    0.372    49 O    0.363
                            37 O    0.362    34 O    0.318
    34   8 O    2.253 --     3 C    0.953    35 H    0.830    33 Cd   0.318
    35   1 H    0.859 --    34 O    0.830
    36   1 H    0.995 --     4 C    0.979
    37   8 O    2.115 --    39 H    0.822    38 H    0.815    33 Cd   0.362
    38   1 H    0.826 --    37 O    0.815
    39   1 H    0.833 --    37 O    0.822
    40   8 O    2.117 --    41 H    0.815    42 H    0.812    33 Cd   0.376
    41   1 H    0.828 --    40 O    0.815
    42   1 H    0.824 --    40 O    0.812
    43   8 O    1.775 --    44 H    0.884    45 H    0.874
    44   1 H    0.885 --    43 O    0.884
    45   1 H    0.875 --    43 O    0.874
    46   8 O    2.130 --    47 H    0.822    48 H    0.813    33 Cd   0.372
    47   1 H    0.834 --    46 O    0.822
    48   1 H    0.824 --    46 O    0.813
    49   8 O    2.124 --    51 H    0.820    50 H    0.817    33 Cd   0.363
    50   1 H    0.829 --    49 O    0.817
    51   1 H    0.832 --    49 O    0.820
 ---------------------------------------------------------------------------

Topologies differ in total number of bonds
Writing topology from bond orders to xtbtopo.mol

molecular dipole:
                 x           y           z       tot (Debye)
 q only:      -22.521       8.904      -0.229
   full:      -22.102       8.914      -0.074      60.574
molecular quadrupole (traceless):
                xx          xy          yy          xz          yz          zz
 q only:      217.614    -153.627     -72.597       8.202     -11.416    -145.018
  q+dip:      210.282    -157.766     -67.801       6.859     -13.110    -142.481
   full:      211.827    -157.310     -67.527       6.870     -13.022    -144.300

           -------------------------------------------------
          |                Geometry Summary                 |
           -------------------------------------------------

      molecular mass/u    :      362.7853318
   center of mass at/Å    :       -3.5208103       1.0695877      -0.0690882
  moments of inertia/u·Å² :        0.1138185E+04   0.6486537E+04   0.7157727E+04
rotational constants/cm⁻¹ :        0.1481097E-01   0.2598865E-02   0.2355165E-02

 * 48 selected distances

     #   Z          #   Z                                           value/Å
     1   6 C        2   6 C                                       1.5251267
     2   6 C        3   6 C                                       1.5222217
     4   6 C        5   6 C                                       1.5254243
     5   6 C        6   6 C                                       1.5277646
     6   6 C        7   6 C                                       1.5265071
     7   6 C        8   6 C                                       1.5269577
     8   6 C        9   6 C                                       1.5267809
     9   6 C       10   6 C                                       1.5242513
     1   6 C       11   1 H                                       1.0871902
     1   6 C       12   1 H                                       1.0859421
     1   6 C       13   1 H                                       1.0869195
     2   6 C       14   1 H                                       1.0918629
     2   6 C       15   1 H                                       1.1068401
     3   6 C       16   1 H                                       1.0946546
     3   6 C       17   1 H                                       1.0956129
     4   6 C       18   1 H                                       1.0867330
     4   6 C       19   1 H                                       1.0873751
     5   6 C       20   1 H                                       1.0925295
     5   6 C       21   1 H                                       1.0925812
     6   6 C       22   1 H                                       1.0924721
     6   6 C       23   1 H                                       1.0925801
     7   6 C       24   1 H                                       1.0932268
     7   6 C       25   1 H                                       1.0932676
     8   6 C       26   1 H                                       1.0926377
     8   6 C       27   1 H                                       1.0926689
     9   6 C       28   1 H                                       1.0927612
     9   6 C       29   1 H                                       1.0927906
    10   6 C       30   1 H                                       1.0878367
    10   6 C       31   1 H                                       1.0878107
    10   6 C       32   1 H                                       1.0875692
     3   6 C       34   8 O                                       1.4337863
    33  48 Cd      34   8 O                                       2.1376032
    34   8 O       35   1 H                                       0.9686830
Note: The following floating-point exceptions are signalling: IEEE_UNDERFLOW_FLAG IEEE_DENORMAL
normal termination of xtb
     4   6 C       36   1 H                                       1.0868098
    33  48 Cd      37   8 O                                       2.1531066 (max)
    37   8 O       38   1 H                                       0.9695901
    37   8 O       39   1 H                                       0.9697327
    33  48 Cd      40   8 O                                       2.1253550
    40   8 O       41   1 H                                       0.9689486
    40   8 O       42   1 H                                       0.9692724
    43   8 O       44   1 H                                       0.9604870 (min)
    43   8 O       45   1 H                                       0.9622486
    33  48 Cd      46   8 O                                       2.1242719
    46   8 O       47   1 H                                       0.9696930
    46   8 O       48   1 H                                       0.9698968
    33  48 Cd      49   8 O                                       2.1340367
    49   8 O       50   1 H                                       0.9696364
    49   8 O       51   1 H                                       0.9695388

 * 5 distinct bonds (by element types)

   Z      Z             #   av. dist./Å        max./Å        min./Å
   1 H    6 C          23     1.0913336     1.1068401     1.0859421
   6 C    6 C           8     1.5256293     1.5277646     1.5222217
   1 H    8 O          11     0.9679752     0.9698968     0.9604870
   6 C    8 O           1     1.4337863     1.4337863     1.4337863
   8 O   48 Cd          5     2.1348747     2.1531066     2.1242719


optimized geometry written to: xtbopt.xyz


           -------------------------------------------------
          | TOTAL ENERGY              -63.206906728767 Eh   |
          | GRADIENT NORM               0.000133956462 Eh/α |
          | HOMO-LUMO GAP               5.738469219867 eV   |
           -------------------------------------------------

------------------------------------------------------------------------
 * finished run on 2026/05/26 at 02:09:25.012     
------------------------------------------------------------------------
 total:
 * wall-time:     0 d,  0 h,  0 min, 54.331 sec
 *  cpu-time:     0 d,  0 h,  1 min, 29.157 sec
 * ratio c/w:     1.641 speedup
 SCF:
 * wall-time:     0 d,  0 h,  0 min,  0.733 sec
 *  cpu-time:     0 d,  0 h,  0 min,  0.920 sec
 * ratio c/w:     1.254 speedup
 ANC optimizer:
 * wall-time:     0 d,  0 h,  0 min, 53.560 sec
 *  cpu-time:     0 d,  0 h,  1 min, 28.181 sec
 * ratio c/w:     1.646 speedup

