      -----------------------------------------------------------      
     |                   =====================                   |     
     |                           x T B                           |     
     |                   =====================                   |     
     |                         S. Grimme                         |     
     |          Mulliken Center for Theoretical Chemistry        |     
     |                    University of Bonn                     |     
      -----------------------------------------------------------      

   * xtb version 6.7.1 (edcfbbe) compiled by 'conda@c0858423619e' on 2025-09-04

   xtb is free software: you can redistribute it and/or modify it under
   the terms of the GNU Lesser General Public License as published by
   the Free Software Foundation, either version 3 of the License, or
   (at your option) any later version.
   
   xtb is distributed in the hope that it will be useful,
   but WITHOUT ANY WARRANTY; without even the implied warranty of
   MERCHANTABILITY or FITNESS FOR A PARTICULAR PURPOSE.  See the
   GNU Lesser General Public License for more details.
   
   Cite this work as:
   * C. Bannwarth, E. Caldeweyher, S. Ehlert, A. Hansen, P. Pracht,
     J. Seibert, S. Spicher, S. Grimme, WIREs Comput. Mol. Sci., 2020, 11,
     e01493. DOI: 10.1002/wcms.1493
   
   for GFN2-xTB:
   * C. Bannwarth, S. Ehlert and S. Grimme., J. Chem. Theory Comput., 2019,
     15, 1652-1671. DOI: 10.1021/acs.jctc.8b01176
   for GFN1-xTB:
   * S. Grimme, C. Bannwarth, P. Shushkov, J. Chem. Theory Comput., 2017,
     13, 1989-2009. DOI: 10.1021/acs.jctc.7b00118
   for GFN0-xTB:
   * P. Pracht, E. Caldeweyher, S. Ehlert, S. Grimme, ChemRxiv, 2019, preprint.
     DOI: 10.26434/chemrxiv.8326202.v1
   for GFN-FF:
   * S. Spicher and S. Grimme, Angew. Chem. Int. Ed., 2020, 59, 15665-15673.
     DOI: 10.1002/anie.202004239
   
   for ALPB and GBSA implicit solvation:
   * S. Ehlert, M. Stahn, S. Spicher, S. Grimme, J. Chem. Theory Comput.,
     2021, 17, 4250-4261. DOI: 10.1021/acs.jctc.1c00471
   
   for ddCOSMO and CPCM-X implicit solvation:
   * M. Stahn, S. Ehlert, S. Grimme, J. Phys. Chem. A,
     2023, XX, XXXX-XXXX. DOI: 10.1021/acs.jpca.3c04382
   
   for DFT-D4:
   * E. Caldeweyher, C. Bannwarth and S. Grimme, J. Chem. Phys., 2017,
     147, 034112. DOI: 10.1063/1.4993215
   * E. Caldeweyher, S. Ehlert, A. Hansen, H. Neugebauer, S. Spicher,
     C. Bannwarth and S. Grimme, J. Chem. Phys., 2019, 150, 154122.
     DOI: 10.1063/1.5090222
   * E. Caldeweyher, J.-M. Mewes, S. Ehlert and S. Grimme, Phys. Chem. Chem. Phys.
     2020, 22, 8499-8512. DOI: 10.1039/D0CP00502A
   
   for sTDA-xTB:
   * S. Grimme and C. Bannwarth, J. Chem. Phys., 2016, 145, 054103.
     DOI: 10.1063/1.4959605
   
   in the mass-spec context:
   * V. Asgeirsson, C. Bauer and S. Grimme, Chem. Sci., 2017, 8, 4879.
     DOI: 10.1039/c7sc00601b
   * J. Koopman and S. Grimme, ACS Omega 2019, 4, 12, 15120-15133.
     DOI: 10.1021/acsomega.9b02011
   
   for metadynamics refer to:
   * S. Grimme, J. Chem. Theory Comput., 2019, 155, 2847-2862
     DOI: 10.1021/acs.jctc.9b00143
   
   for SPH calculations refer to:
   * S. Spicher and S. Grimme, J. Chem. Theory Comput., 2021, 17, 1701-1714
     DOI: 10.1021/acs.jctc.0c01306
   
   for ONIOM refer to:
   * C. Plett, A. Katbashev, S. Ehlert, S. Grimme, M. Bursch,
     Phys. Chem. Chem. Phys., 2023, 25, 17860-17868. DOI: 10.1039/D3CP02178E
   
   for DIPRO refer to:
   * J. Kohn, N. Gildemeister, S. Grimme, D. Fazzi, A. Hansen,
     J. Chem. Phys., 2023, just accepted.
   
   for PTB refer to:
   * S. Grimme, M. Mueller, A. Hansen, J. Chem. Phys., 2023, 158, 124111.
     DOI: 10.1063/5.0137838
   
   with help from (in alphabetical order)
   P. Atkinson, C. Bannwarth, F. Bohle, G. Brandenburg, E. Caldeweyher
   M. Checinski, S. Dohm, S. Ehlert, S. Ehrlich, I. Gerasimov, C. Hölzer
   A. Katbashev, J. Kohn, J. Koopman, C. Lavigne, S. Lehtola, F. März, M. Müller,
   F. Musil, H. Neugebauer, J. Pisarek, C. Plett, P. Pracht, F. Pultar,
   J. Seibert, P. Shushkov, S. Spicher, M. Stahn, M. Steiner, T. Strunk,
   J. Stückrath, T. Rose, and J. Unsleber
   
 * started run on 2026/05/26 at 02:10:16.205     
   ID    Z sym.   atoms
    1    6 C      1-10
    2    1 H      11-32, 35, 36, 38, 39, 41, 42, 44, 45, 47, 48, 50, 51
    3   48 Cd     33
    4    8 O      34, 37, 40, 43, 46, 49

           -------------------------------------------------
          |                Calculation Setup                |
           -------------------------------------------------

          program call               : /content/xtb_env/bin/xtb input.xyz --gfn 2 --opt tight --alpb water --chrg 2 --uhf 0
          hostname                   : 01035569fb61
          coordinate file            : input.xyz
          omp threads                :                     2


molecular fragmentation (1/2 indicates fragments):
111111111111111111111111111111111112111111111222222
# atoms in fragment 1/2:    44     7
 fragment masses (1/2) :      325.75       37.04
CMA distance (Bohr)    :   3.542
constraining FC (au)   :  0.0500

           -------------------------------------------------
          |                 G F N 2 - x T B                 |
           -------------------------------------------------

        Reference                      10.1021/acs.jctc.8b01176
      * Hamiltonian:
        H0-scaling (s, p, d)           1.850000    2.230000    2.230000
        zeta-weighting                 0.500000
      * Dispersion:
        s8                             2.700000
        a1                             0.520000
        a2                             5.000000
        s9                             5.000000
      * Repulsion:
        kExp                           1.500000    1.000000
        rExp                           1.000000
      * Coulomb:
        alpha                          2.000000
        third order                    shell-resolved
        anisotropic                    true
        a3                             3.000000
        a5                             4.000000
        cn-shift                       1.200000
        cn-exp                         4.000000
        max-rad                        5.000000

      * Solvation model:               ALPB
        Solvent                        water
        Parameter file                 internal GFN2-xTB/ALPB
        Dielectric constant                8.0200E+01
        Reference state                gsolv [1 M gas/solution]
        Free energy shift                  1.0808E-03 Eh       6.7819E-01 kcal/mol
        Temperature                        2.9815E+02 K
        Density                            1.0000E+00 kg/L
        Solvent mass                       1.8000E+01 g/mol
        Interaction kernel             P16
        Born radius scaling (c1)           1.4744E+00
        Born radii integrator          GBOBC
        Born offset                        0.0000E+00 a0       0.0000E+00 AA
        H-bond correction              true
        Ion screening                  false
        Surface tension                    1.0000E-05 Eh       1.5569E+01 dyn/cm
        Grid points                               230 per atom

          ...................................................
          :                      SETUP                      :
          :.................................................:
          :  # basis functions                 102          :
          :  # atomic orbitals                 102          :
          :  # shells                           68          :
          :  # electrons                       110          :
          :  max. iterations                   250          :
          :  Hamiltonian                  GFN2-xTB          :
          :  restarted?                      false          :
          :  GBSA solvation                   true          :
          :  PC potential                    false          :
          :  electronic temp.          300.0000000     K    :
          :  accuracy                    1.0000000          :
          :  -> integral cutoff          0.2500000E+02      :
          :  -> integral neglect         0.1000000E-07      :
          :  -> SCF convergence          0.1000000E-05 Eh   :
          :  -> wf. convergence          0.1000000E-03 e    :
          :  Broyden damping             0.4000000          :
          :  net charge                          2          :
          :  unpaired electrons                  0          :
          ...................................................

 iter      E             dE          RMSdq      gap      omega  full diag
   1    -61.0904969 -0.610905E+02  0.599E+00    0.52       0.0  T
   2    -61.3049395 -0.214443E+00  0.388E+00    0.87       1.0  T
   3    -61.2663300  0.386094E-01  0.233E+00    0.43       1.0  T
   4    -61.3936751 -0.127345E+00  0.125E+00    1.04       1.0  T
   5    -61.4419543 -0.482792E-01  0.636E-01    0.64       1.0  T
   6    -61.4533535 -0.113992E-01  0.294E-01    0.48       1.0  T
   7    -61.4541222 -0.768709E-03  0.154E-01    0.43       1.0  T
   8    -61.4540784  0.438509E-04  0.832E-02    0.42       1.0  T
   9    -61.4542754 -0.197037E-03  0.271E-02    0.43       1.0  T
  10    -61.4542825 -0.705784E-05  0.117E-02    0.43       1.2  T
  11    -61.4542842 -0.173915E-05  0.434E-03    0.43       3.2  T
  12    -61.4542843 -0.796967E-07  0.318E-03    0.43       4.4  T
  13    -61.4542844 -0.926470E-07  0.124E-03    0.43      11.3  T
  14    -61.4542844 -0.188739E-07  0.528E-04    0.43      26.5  T
  15    -61.4542844 -0.467792E-08  0.211E-04    0.43      66.5  T

   *** convergence criteria satisfied after 15 iterations ***

         #    Occupation            Energy/Eh            Energy/eV
      -------------------------------------------------------------
         1        2.0000           -0.8050491             -21.9065
       ...           ...                  ...                  ...
        49        2.0000           -0.3462719              -9.4225
        50        2.0000           -0.3197562              -8.7010
        51        2.0000           -0.3103568              -8.4452
        52        2.0000           -0.2933013              -7.9811
        53        2.0000           -0.2600028              -7.0750
        54        2.0000           -0.2450182              -6.6673
        55        1.9995           -0.2164957              -5.8911 (HOMO)
        56        0.0005           -0.2006032              -5.4587 (LUMO)
        57                         -0.1599999              -4.3538
        58                         -0.1343144              -3.6549
        59                         -0.1187426              -3.2312
        60                         -0.0922961              -2.5115
       ...                                ...                  ...
       102                          1.6495965              44.8878
      -------------------------------------------------------------
                  HL-Gap            0.0158925 Eh            0.4325 eV
             Fermi-level           -0.2085495 Eh           -5.6749 eV

 SCC (total)                   0 d,  0 h,  0 min,  0.414 sec
 SCC setup                      ...        0 min,  0.008 sec (  1.911%)
 Dispersion                     ...        0 min,  0.008 sec (  1.935%)
 classical contributions        ...        0 min,  0.004 sec (  0.864%)
 integral evaluation            ...        0 min,  0.025 sec (  5.976%)
 iterations                     ...        0 min,  0.276 sec ( 66.688%)
 molecular gradient             ...        0 min,  0.086 sec ( 20.859%)
 printout                       ...        0 min,  0.007 sec (  1.757%)

         :::::::::::::::::::::::::::::::::::::::::::::::::::::
         ::                     SUMMARY                     ::
         :::::::::::::::::::::::::::::::::::::::::::::::::::::
         :: total energy             -60.474284250732 Eh    ::
         :: total w/o Gsasa/hb       -60.419610037939 Eh    ::
         :: gradient norm              1.214054508781 Eh/a0 ::
         :: HOMO-LUMO gap              0.432456394533 eV    ::
         ::.................................................::
         :: SCC energy               -61.454070554514 Eh    ::
         :: -> isotropic ES            0.646143276293 Eh    ::
         :: -> anisotropic ES         -0.000144781675 Eh    ::
         :: -> anisotropic XC          0.039957687416 Eh    ::
         :: -> dispersion             -0.038552924212 Eh    ::
         :: -> Gsolv                  -0.442179815951 Eh    ::
         ::    -> Gelec               -0.387505603158 Eh    ::
         ::    -> Gsasa               -0.001522749375 Eh    ::
         ::    -> Ghb                 -0.054232223116 Eh    ::
         ::    -> Gshift               0.001080759698 Eh    ::
         :: repulsion energy           0.979786303781 Eh    ::
         :: add. restraining           0.000000000000 Eh    ::
         :: total charge               2.000000000000 e     ::
         :::::::::::::::::::::::::::::::::::::::::::::::::::::

      ----------------------------------------------------------- 
     |                   =====================                   |
     |                        A N C O P T                        |
     |                   =====================                   |
     |               Approximate Normal Coordinate               |
     |                Rational Function Optimizer                |
      ----------------------------------------------------------- 
      ----------------------------------------------------------- 
     |                   =====================                   |
     |                        A N C O P T                        |
     |                   =====================                   |
     |               Approximate Normal Coordinate               |
     |                Rational Function Optimizer                |
      ----------------------------------------------------------- 

          ...................................................
          :                      SETUP                      :
          :.................................................:
          :   optimization level             tight          :
          :   max. optcycles                   255          :
          :   ANC micro-cycles                  20          :
          :   degrees of freedom               147          :
          :.................................................:
          :   RF solver                   davidson          :
          :   write xtbopt.log                true          :
          :   linear?                        false          :
          :   energy convergence         0.1000000E-05 Eh   :
          :   grad. convergence          0.8000000E-03 Eh/α :
          :   maxmium RF displ.          1.0000000          :
          :   Hlow (freq-cutoff)         0.1000000E-01      :
          :   Hmax (freq-cutoff)         5.0000000          :
          :   S6 in model hess.         20.0000000          :
          ...................................................

generating ANC from exact Hessian ...
Using Lindh-Hessian (1995)
 Shifting diagonal of input Hessian by    9.9128202814104758E-003
 Lowest  eigenvalues of input Hessian
    0.000000    0.000000    0.000000    0.000000    0.000000    0.000000
    0.010000    0.010013    0.010038    0.010154    0.010304    0.010372
    0.010560    0.010808    0.011066    0.011455    0.012176    0.012268
 Highest eigenvalues
    1.975686    2.015415    2.193681    2.467123    2.677790    2.935467


........................................................................
.............................. CYCLE    1 ..............................
........................................................................

 iter      E             dE          RMSdq      gap      omega  full diag
   1    -61.4542844 -0.614543E+02  0.123E-04    0.43       0.0  T
   2    -61.4542844  0.737977E-09  0.150E-04    0.43      93.6  T
   3    -61.4542844 -0.116763E-08  0.556E-05    0.43     251.7  T
     SCC iter.                  ...        0 min,  0.022 sec
     gradient                   ...        0 min,  0.066 sec
 * total energy  :   -60.4742843 Eh     change       -0.2636398E-09 Eh
   gradient norm :     1.2140256 Eh/α   predicted     0.0000000E+00 (-100.00%)
   displ. norm   :     0.6889118 α      lambda       -0.7473409E+00
   maximum displ.:     0.3017700 α      in ANC's #90, #146, #88, ...

........................................................................
.............................. CYCLE    2 ..............................
........................................................................

 iter      E             dE          RMSdq      gap      omega  full diag
   1    -61.6898828 -0.616899E+02  0.103E+00    0.92       0.0  T
   2    -61.6986557 -0.877288E-02  0.601E-01    0.65       1.0  T
   3    -61.7010107 -0.235493E-02  0.380E-01    0.67       1.0  T
   4    -61.7027683 -0.175763E-02  0.168E-01    0.66       1.0  T
   5    -61.7032773 -0.509044E-03  0.679E-02    0.63       1.0  T
   6    -61.7033606 -0.832198E-04  0.327E-02    0.65       1.0  T
   7    -61.7033717 -0.111801E-04  0.172E-02    0.65       1.0  T
   8    -61.7033727 -0.940632E-06  0.736E-03    0.65       1.9  T
   9    -61.7033733 -0.642310E-06  0.352E-03    0.65       4.0  T
  10    -61.7033735 -0.136460E-06  0.170E-03    0.65       8.3  T
  11    -61.7033735 -0.128707E-07  0.709E-04    0.65      19.7  T
  12    -61.7033735 -0.242769E-08  0.299E-04    0.65      46.8  T
     SCC iter.                  ...        0 min,  0.126 sec
     gradient                   ...        0 min,  0.066 sec
 * total energy  :   -60.9452555 Eh     change       -0.4709712E+00 Eh
   gradient norm :     0.7561678 Eh/α   predicted    -0.5510716E+00 (  17.01%)
   displ. norm   :     0.8121563 α      lambda       -0.5835719E+00
   maximum displ.:     0.2420931 α      in ANC's #46, #146, #131, ...

........................................................................
.............................. CYCLE    3 ..............................
........................................................................

 iter      E             dE          RMSdq      gap      omega  full diag
   1    -62.0956323 -0.620956E+02  0.123E+00    1.29       0.0  T
   2    -62.1031378 -0.750545E-02  0.702E-01    1.09       1.0  T
   3    -62.1025046  0.633199E-03  0.344E-01    1.12       1.0  T
   4    -62.1051082 -0.260366E-02  0.111E-01    1.09       1.0  T
   5    -62.1051789 -0.706978E-04  0.623E-02    1.07       1.0  T
   6    -62.1052450 -0.660773E-04  0.326E-02    1.08       1.0  T
   7    -62.1052472 -0.226569E-05  0.154E-02    1.08       1.0  T
   8    -62.1052503 -0.304309E-05  0.611E-03    1.08       2.3  T
   9    -62.1052504 -0.613213E-07  0.314E-03    1.08       4.5  T
  10    -62.1052504 -0.590929E-07  0.162E-03    1.08       8.7  T
  11    -62.1052504 -0.126465E-07  0.469E-04    1.08      29.9  T
  12    -62.1052504 -0.261680E-08  0.201E-04    1.08      69.8  T
     SCC iter.                  ...        0 min,  0.223 sec
     gradient                   ...        0 min,  0.097 sec
 * total energy  :   -61.4092587 Eh     change       -0.4640032E+00 Eh
   gradient norm :     0.4821065 Eh/α   predicted    -0.4842474E+00 (   4.36%)
   displ. norm   :     0.7659860 α      lambda       -0.3458672E+00
   maximum displ.:     0.2713123 α      in ANC's #46, #131, #41, ...

........................................................................
.............................. CYCLE    4 ..............................
........................................................................

 iter      E             dE          RMSdq      gap      omega  full diag
   1    -62.3793743 -0.623794E+02  0.884E-01    1.39       0.0  T
   2    -62.3832695 -0.389520E-02  0.488E-01    1.26       1.0  T
   3    -62.3829962  0.273380E-03  0.216E-01    1.33       1.0  T
   4    -62.3839153 -0.919183E-03  0.692E-02    1.27       1.0  T
   5    -62.3839412 -0.258797E-04  0.324E-02    1.27       1.0  T
   6    -62.3839447 -0.347765E-05  0.202E-02    1.28       1.0  T
   7    -62.3839476 -0.286691E-05  0.725E-03    1.27       1.9  T
   8    -62.3839485 -0.956822E-06  0.259E-03    1.27       5.4  T
   9    -62.3839486 -0.521991E-07  0.157E-03    1.27       8.9  T
  10    -62.3839486 -0.105519E-07  0.753E-04    1.27      18.6  T
  11    -62.3839486 -0.486935E-09  0.293E-04    1.27      47.7  T
     SCC iter.                  ...        0 min,  0.269 sec
     gradient                   ...        0 min,  0.058 sec
 * total energy  :   -61.7060375 Eh     change       -0.2967788E+00 Eh
   gradient norm :     0.3651159 Eh/α   predicted    -0.2743997E+00 (  -7.54%)
   displ. norm   :     0.8184633 α      lambda       -0.2769972E+00
   maximum displ.:     0.3125697 α      in ANC's #46, #41, #131, ...

........................................................................
.............................. CYCLE    5 ..............................
........................................................................

 iter      E             dE          RMSdq      gap      omega  full diag
   1    -62.6043607 -0.626044E+02  0.742E-01    1.45       0.0  T
   2    -62.6080885 -0.372780E-02  0.378E-01    1.35       1.0  T
   3    -62.6081217 -0.331608E-04  0.164E-01    1.41       1.0  T
   4    -62.6083753 -0.253608E-03  0.582E-02    1.35       1.0  T
   5    -62.6084066 -0.313351E-04  0.271E-02    1.37       1.0  T
   6    -62.6084086 -0.200200E-05  0.142E-02    1.37       1.0  T
   7    -62.6084095 -0.928312E-06  0.483E-03    1.37       2.9  T
   8    -62.6084099 -0.371508E-06  0.187E-03    1.37       7.5  T
   9    -62.6084099 -0.409579E-07  0.719E-04    1.37      19.5  T
  10    -62.6084099 -0.506662E-08  0.358E-04    1.37      39.1  T
     SCC iter.                  ...        0 min,  0.084 sec
     gradient                   ...        0 min,  0.060 sec
 * total energy  :   -61.9480057 Eh     change       -0.2419682E+00 Eh
   gradient norm :     0.2953734 Eh/α   predicted    -0.2312763E+00 (  -4.42%)
   displ. norm   :     0.8493841 α      lambda       -0.2255509E+00
   maximum displ.:     0.3694257 α      in ANC's #46, #90, #41, ...

........................................................................
.............................. CYCLE    6 ..............................
........................................................................

 iter      E             dE          RMSdq      gap      omega  full diag
   1    -62.7859270 -0.627859E+02  0.574E-01    1.42       0.0  T
   2    -62.7892996 -0.337265E-02  0.292E-01    1.32       1.0  T
   3    -62.7894700 -0.170395E-03  0.157E-01    1.41       1.0  T
   4    -62.7896430 -0.172984E-03  0.522E-02    1.35       1.0  T
   5    -62.7896641 -0.210784E-04  0.265E-02    1.37       1.0  T
   6    -62.7896666 -0.252308E-05  0.143E-02    1.37       1.0  T
   7    -62.7896672 -0.554745E-06  0.547E-03    1.37       2.6  T
   8    -62.7896675 -0.331784E-06  0.250E-03    1.37       5.6  T
   9    -62.7896675 -0.255126E-07  0.931E-04    1.37      15.0  T
  10    -62.7896675 -0.699295E-08  0.531E-04    1.37      26.4  T
     SCC iter.                  ...        0 min,  0.156 sec
     gradient                   ...        0 min,  0.085 sec
 * total energy  :   -62.1481447 Eh     change       -0.2001390E+00 Eh
   gradient norm :     0.2461321 Eh/α   predicted    -0.1941376E+00 (  -3.00%)
   displ. norm   :     0.8604980 α      lambda       -0.1866412E+00
   maximum displ.:     0.3915562 α      in ANC's #46, #90, #31, ...

........................................................................
.............................. CYCLE    7 ..............................
........................................................................

 iter      E             dE          RMSdq      gap      omega  full diag
   1    -62.9416873 -0.629417E+02  0.513E-01    0.98       0.0  T
   2    -62.9443746 -0.268732E-02  0.283E-01    0.85       1.0  T
   3    -62.9445979 -0.223211E-03  0.164E-01    0.95       1.0  T
   4    -62.9447363 -0.138465E-03  0.503E-02    0.90       1.0  T
   5    -62.9447458 -0.945451E-05  0.271E-02    0.91       1.0  T
   6    -62.9447466 -0.784369E-06  0.123E-02    0.91       1.1  T
   7    -62.9447482 -0.162141E-05  0.449E-03    0.91       3.1  T
   8    -62.9447484 -0.172415E-06  0.196E-03    0.91       7.1  T
   9    -62.9447484 -0.137670E-07  0.773E-04    0.91      18.1  T
  10    -62.9447484 -0.641056E-08  0.342E-04    0.91      41.0  T
     SCC iter.                  ...        0 min,  0.183 sec
     gradient                   ...        0 min,  0.084 sec
 * total energy  :   -62.3141537 Eh     change       -0.1660090E+00 Eh
   gradient norm :     0.2057771 Eh/α   predicted    -0.1624206E+00 (  -2.16%)
   displ. norm   :     0.8579891 α      lambda       -0.1548785E+00
   maximum displ.:     0.3658206 α      in ANC's #46, #31, #36, ...

........................................................................
.............................. CYCLE    8 ..............................
........................................................................

 iter      E             dE          RMSdq      gap      omega  full diag
   1    -63.0739001 -0.630739E+02  0.509E-01    0.65       0.0  T
   2    -63.0760074 -0.210736E-02  0.288E-01    0.43       1.0  T
   3    -63.0761477 -0.140249E-03  0.161E-01    0.57       1.0  T
   4    -63.0762953 -0.147631E-03  0.595E-02    0.49       1.0  T
   5    -63.0763158 -0.205262E-04  0.285E-02    0.50       1.0  T
   6    -63.0763168 -0.949699E-06  0.161E-02    0.50       1.0  T
   7    -63.0763183 -0.156835E-05  0.304E-03    0.50       4.6  T
   8    -63.0763184 -0.228835E-07  0.128E-03    0.50      11.0  T
   9    -63.0763184 -0.629125E-08  0.605E-04    0.50      23.1  T
  10    -63.0763184 -0.353881E-08  0.196E-04    0.50      71.3  T
     SCC iter.                  ...        0 min,  0.280 sec
     gradient                   ...        0 min,  0.133 sec
 * total energy  :   -62.4519745 Eh     change       -0.1378208E+00 Eh
   gradient norm :     0.1728043 Eh/α   predicted    -0.1344459E+00 (  -2.45%)
   displ. norm   :     0.8483668 α      lambda       -0.1281105E+00
   maximum displ.:     0.2792173 α      in ANC's #46, #31, #22, ...

........................................................................
.............................. CYCLE    9 ..............................
........................................................................

 iter      E             dE          RMSdq      gap      omega  full diag
   1    -63.1836841 -0.631837E+02  0.504E-01    0.38       0.0  T
   2    -63.1790681  0.461600E-02  0.440E-01    0.13       1.0  T
   3    -63.1836720 -0.460398E-02  0.290E-01    0.53       1.0  T
   4    -63.1847608 -0.108879E-02  0.163E-01    0.39       1.0  T
   5    -63.1850750 -0.314121E-03  0.113E-01    0.33       1.0  T
   6    -63.1853825 -0.307579E-03  0.474E-02    0.25       1.0  T
   7    -63.1854178 -0.352169E-04  0.119E-02    0.23       1.2  T
   8    -63.1854181 -0.349328E-06  0.644E-03    0.23       2.2  T
   9    -63.1854182 -0.123563E-06  0.283E-03    0.24       5.0  T
  10    -63.1854183 -0.806928E-07  0.166E-03    0.23       8.4  T
  11    -63.1854184 -0.905376E-07  0.396E-04    0.23      35.4  T
  12    -63.1854184 -0.221323E-08  0.152E-04    0.23      92.3  T
     SCC iter.                  ...        0 min,  2.397 sec
     gradient                   ...        0 min,  0.117 sec
 * total energy  :   -62.5646800 Eh     change       -0.1127055E+00 Eh
   gradient norm :     0.1434861 Eh/α   predicted    -0.1101575E+00 (  -2.26%)
   displ. norm   :     0.8382883 α      lambda       -0.1019411E+00
   maximum displ.:     0.2758936 α      in ANC's #31, #22, #36, ...

........................................................................
.............................. CYCLE   10 ..............................
........................................................................

 iter      E             dE          RMSdq      gap      omega  full diag
   1    -63.2688048 -0.632688E+02  0.464E-01    0.29       0.0  T
   2    -63.2537452  0.150596E-01  0.614E-01    0.10       1.0  T
   3    -63.2679898 -0.142446E-01  0.292E-01    0.46       1.0  T
   4    -63.2686194 -0.629644E-03  0.175E-01    0.40       1.0  T
   5    -63.2689645 -0.345102E-03  0.140E-01    0.35       1.0  T
   6    -63.2693100 -0.345409E-03  0.101E-01    0.29       1.0  T
   7    -63.2696579 -0.347922E-03  0.138E-02    0.22       1.0  T
   8    -63.2696588 -0.944500E-06  0.106E-02    0.22       1.3  T
   9    -63.2696616 -0.277957E-05  0.430E-03    0.22       3.3  T
  10    -63.2696621 -0.536474E-06  0.201E-03    0.22       7.0  T
  11    -63.2696623 -0.135624E-06  0.862E-04    0.22      16.2  T
  12    -63.2696623 -0.272885E-07  0.116E-04    0.22     121.0  T
     SCC iter.                  ...        0 min,  0.605 sec
     gradient                   ...        0 min,  0.083 sec
 * total energy  :   -62.6531031 Eh     change       -0.8842303E-01 Eh
   gradient norm :     0.1201011 Eh/α   predicted    -0.8678894E-01 (  -1.85%)
   displ. norm   :     0.8270518 α      lambda       -0.7843529E-01
   maximum displ.:     0.3146439 α      in ANC's #31, #36, #22, ...

........................................................................
.............................. CYCLE   11 ..............................
........................................................................

 iter      E             dE          RMSdq      gap      omega  full diag
   1    -63.3376093 -0.633376E+02  0.406E-01    0.49       0.0  T
   2    -63.3379098 -0.300460E-03  0.235E-01    0.51       1.0  T
   3    -63.3378382  0.715985E-04  0.796E-02    0.47       1.0  T
   4    -63.3379225 -0.843008E-04  0.369E-02    0.53       1.0  T
   5    -63.3379550 -0.325641E-04  0.235E-02    0.49       1.0  T
   6    -63.3379614 -0.634854E-05  0.365E-03    0.50       3.8  T
   7    -63.3379615 -0.138229E-06  0.162E-03    0.50       8.6  T
   8    -63.3379615 -0.127355E-07  0.754E-04    0.50      18.6  T
   9    -63.3379616 -0.387375E-08  0.276E-04    0.50      50.8  T
     SCC iter.                  ...        0 min,  0.282 sec
     gradient                   ...        0 min,  0.109 sec
 * total energy  :   -62.7204919 Eh     change       -0.6738889E-01 Eh
   gradient norm :     0.1129094 Eh/α   predicted    -0.6604311E-01 (  -2.00%)
   displ. norm   :     0.8138104 α      lambda       -0.6153474E-01
   maximum displ.:     0.3438057 α      in ANC's #31, #22, #36, ...

........................................................................
.............................. CYCLE   12 ..............................
........................................................................

 iter      E             dE          RMSdq      gap      omega  full diag
   1    -63.3938516 -0.633939E+02  0.355E-01    0.90       0.0  T
   2    -63.3942399 -0.388347E-03  0.199E-01    0.99       1.0  T
   3    -63.3941760  0.639453E-04  0.928E-02    0.89       1.0  T
   4    -63.3943170 -0.140950E-03  0.250E-02    0.97       1.0  T
   5    -63.3943266 -0.961321E-05  0.160E-02    0.95       1.0  T
   6    -63.3943276 -0.103942E-05  0.289E-03    0.95       4.8  T
   7    -63.3943277 -0.663842E-07  0.147E-03    0.95       9.5  T
   8    -63.3943277 -0.117893E-07  0.616E-04    0.95      22.7  T
   9    -63.3943277 -0.213540E-08  0.220E-04    0.95      63.6  T
     SCC iter.                  ...        0 min,  0.247 sec
     gradient                   ...        0 min,  0.087 sec
 * total energy  :   -62.7742669 Eh     change       -0.5377494E-01 Eh
   gradient norm :     0.1191752 Eh/α   predicted    -0.5114424E-01 (  -4.89%)
   displ. norm   :     0.8143428 α      lambda       -0.5629237E-01
   maximum displ.:     0.3447706 α      in ANC's #31, #36, #38, ...

........................................................................
.............................. CYCLE   13 ..............................
........................................................................

 iter      E             dE          RMSdq      gap      omega  full diag
   1    -63.4494764 -0.634495E+02  0.363E-01    1.32       0.0  T
   2    -63.4503044 -0.828077E-03  0.191E-01    1.52       1.0  T
   3    -63.4503754 -0.709579E-04  0.106E-01    1.38       1.0  T
   4    -63.4504629 -0.875532E-04  0.219E-02    1.44       1.0  T
   5    -63.4504654 -0.241430E-05  0.134E-02    1.43       1.0  T
   6    -63.4504659 -0.552696E-06  0.425E-03    1.43       3.3  T
   7    -63.4504660 -0.532232E-07  0.124E-03    1.43      11.3  T
   8    -63.4504660 -0.105803E-07  0.614E-04    1.43      22.8  T
   9    -63.4504660 -0.143979E-08  0.175E-04    1.43      80.1  T
     SCC iter.                  ...        0 min,  0.534 sec
     gradient                   ...        0 min,  0.089 sec
 * total energy  :   -62.8241092 Eh     change       -0.4984234E-01 Eh
   gradient norm :     0.1277377 Eh/α   predicted    -0.4681154E-01 (  -6.08%)
   displ. norm   :     0.8465545 α      lambda       -0.6153153E-01
   maximum displ.:     0.3402399 α      in ANC's #31, #20, #22, ...

........................................................................
.............................. CYCLE   14 ..............................
........................................................................

 iter      E             dE          RMSdq      gap      omega  full diag
   1    -63.5010635 -0.635011E+02  0.458E-01    1.79       0.0  T
   2    -63.5032530 -0.218952E-02  0.243E-01    2.06       1.0  T
   3    -63.5034543 -0.201313E-03  0.134E-01    1.90       1.0  T
   4    -63.5035124 -0.580487E-04  0.320E-02    1.93       1.0  T
   5    -63.5035153 -0.291955E-05  0.152E-02    1.92       1.0  T
   6    -63.5035159 -0.632798E-06  0.530E-03    1.93       2.6  T
   7    -63.5035160 -0.141238E-06  0.161E-03    1.92       8.7  T
   8    -63.5035161 -0.988400E-08  0.844E-04    1.92      16.6  T
   9    -63.5035161 -0.351998E-08  0.382E-04    1.92      36.6  T
     SCC iter.                  ...        0 min,  0.197 sec
     gradient                   ...        0 min,  0.090 sec
 * total energy  :   -62.8801276 Eh     change       -0.5601837E-01 Eh
   gradient norm :     0.1481468 Eh/α   predicted    -0.5281419E-01 (  -5.72%)
   displ. norm   :     0.8349413 α      lambda       -0.7751899E-01
   maximum displ.:     0.2944236 α      in ANC's #31, #36, #40, ...

........................................................................
.............................. CYCLE   15 ..............................
........................................................................

 iter      E             dE          RMSdq      gap      omega  full diag
   1    -63.5763967 -0.635764E+02  0.584E-01    2.67       0.0  T
   2    -63.5813378 -0.494105E-02  0.330E-01    2.98       1.0  T
   3    -63.5816729 -0.335079E-03  0.178E-01    2.84       1.0  T
   4    -63.5817289 -0.560600E-04  0.569E-02    2.83       1.0  T
   5    -63.5817370 -0.805055E-05  0.246E-02    2.83       1.0  T
   6    -63.5817385 -0.155265E-05  0.103E-02    2.83       1.4  T
   7    -63.5817390 -0.469784E-06  0.219E-03    2.83       6.4  T
   8    -63.5817390 -0.258311E-07  0.136E-03    2.83      10.3  T
   9    -63.5817390 -0.721815E-08  0.460E-04    2.83      30.4  T
  10    -63.5817390 -0.888392E-09  0.263E-04    2.83      53.2  T
     SCC iter.                  ...        0 min,  0.216 sec
     gradient                   ...        0 min,  0.055 sec
 * total energy  :   -62.9499406 Eh     change       -0.6981299E-01 Eh
   gradient norm :     0.1684462 Eh/α   predicted    -0.6577989E-01 (  -5.78%)
   displ. norm   :     0.8134819 α      lambda       -0.8561533E-01
   maximum displ.:     0.1982184 α      in ANC's #31, #106, #20, ...

........................................................................
.............................. CYCLE   16 ..............................
........................................................................

 iter      E             dE          RMSdq      gap      omega  full diag
   1    -63.6456092 -0.636456E+02  0.506E-01    3.68       0.0  T
   2    -63.6480401 -0.243091E-02  0.308E-01    3.78       1.0  T
   3    -63.6482064 -0.166247E-03  0.153E-01    3.72       1.0  T
   4    -63.6482527 -0.463394E-04  0.450E-02    3.73       1.0  T
   5    -63.6482618 -0.907724E-05  0.194E-02    3.73       1.0  T
   6    -63.6482624 -0.610242E-06  0.702E-03    3.73       2.0  T
   7    -63.6482626 -0.220154E-06  0.269E-03    3.73       5.2  T
   8    -63.6482626 -0.238860E-07  0.140E-03    3.73      10.0  T
   9    -63.6482626 -0.512490E-08  0.356E-04    3.73      39.4  T
  10    -63.6482626 -0.707900E-09  0.224E-04    3.73      62.6  T
     SCC iter.                  ...        0 min,  0.179 sec
     gradient                   ...        0 min,  0.056 sec
 * total energy  :   -63.0103273 Eh     change       -0.6038670E-01 Eh
   gradient norm :     0.1804245 Eh/α   predicted    -0.7113585E-01 (  17.80%)
   displ. norm   :     0.5874571 α      lambda       -0.5111061E-01
   maximum displ.:     0.2310063 α      in ANC's #31, #37, #20, ...

........................................................................
.............................. CYCLE   17 ..............................
........................................................................

 iter      E             dE          RMSdq      gap      omega  full diag
   1    -63.6923156 -0.636923E+02  0.253E-01    3.98       0.0  T
   2    -63.6925643 -0.248756E-03  0.148E-01    3.94       1.0  T
   3    -63.6925803 -0.159731E-04  0.480E-02    3.93       1.0  T
   4    -63.6925971 -0.167785E-04  0.134E-02    3.92       1.0  T
   5    -63.6925981 -0.988614E-06  0.668E-03    3.92       2.1  T
   6    -63.6925982 -0.169857E-06  0.304E-03    3.92       4.6  T
   7    -63.6925983 -0.400735E-07  0.119E-03    3.93      11.8  T
   8    -63.6925983 -0.757813E-08  0.510E-04    3.93      27.4  T
   9    -63.6925983 -0.435442E-09  0.192E-04    3.93      73.1  T
     SCC iter.                  ...        0 min,  0.093 sec
     gradient                   ...        0 min,  0.056 sec
 * total energy  :   -63.0520129 Eh     change       -0.4168558E-01 Eh
   gradient norm :     0.1432269 Eh/α   predicted    -0.3437460E-01 ( -17.54%)
   displ. norm   :     0.6661557 α      lambda       -0.6557711E-01
   maximum displ.:     0.2120912 α      in ANC's #106, #37, #20, ...

........................................................................
.............................. CYCLE   18 ..............................
........................................................................

 iter      E             dE          RMSdq      gap      omega  full diag
   1    -63.7571750 -0.637572E+02  0.357E-01    4.18       0.0  T
   2    -63.7576764 -0.501418E-03  0.213E-01    4.10       1.0  T
   3    -63.7577185 -0.421278E-04  0.761E-02    4.09       1.0  T
   4    -63.7577548 -0.362631E-04  0.204E-02    4.07       1.0  T
   5    -63.7577572 -0.239300E-05  0.129E-02    4.08       1.1  T
   6    -63.7577578 -0.643637E-06  0.581E-03    4.08       2.4  T
   7    -63.7577580 -0.159534E-06  0.172E-03    4.09       8.1  T
   8    -63.7577580 -0.142739E-07  0.705E-04    4.08      19.9  T
   9    -63.7577580 -0.848438E-09  0.200E-04    4.09      70.0  T
     SCC iter.                  ...        0 min,  0.192 sec
     gradient                   ...        0 min,  0.054 sec
 * total energy  :   -63.0896668 Eh     change       -0.3765394E-01 Eh
   gradient norm :     0.1080177 Eh/α   predicted    -0.4733890E-01 (  25.72%)
   displ. norm   :     0.6727231 α      lambda       -0.3548777E-01
   maximum displ.:     0.2382015 α      in ANC's #20, #31, #28, ...

........................................................................
.............................. CYCLE   19 ..............................
........................................................................

 iter      E             dE          RMSdq      gap      omega  full diag
   1    -63.7708345 -0.637708E+02  0.253E-01    4.32       0.0  T
   2    -63.7710177 -0.183204E-03  0.146E-01    4.28       1.0  T
   3    -63.7710223 -0.456857E-05  0.443E-02    4.27       1.0  T
   4    -63.7710338 -0.114961E-04  0.100E-02    4.27       1.4  T
   5    -63.7710344 -0.610596E-06  0.434E-03    4.27       3.2  T
   6    -63.7710344 -0.417510E-07  0.167E-03    4.27       8.4  T
   7    -63.7710344 -0.613633E-08  0.509E-04    4.27      27.5  T
   8    -63.7710344 -0.152419E-08  0.240E-04    4.27      58.3  T
     SCC iter.                  ...        0 min,  0.145 sec
     gradient                   ...        0 min,  0.059 sec
 * total energy  :   -63.1123344 Eh     change       -0.2266758E-01 Eh
   gradient norm :     0.0865454 Eh/α   predicted    -0.2577399E-01 (  13.70%)
   displ. norm   :     0.6099973 α      lambda       -0.2675642E-01
   maximum displ.:     0.1686022 α      in ANC's #37, #20, #14, ...

........................................................................
.............................. CYCLE   20 ..............................
........................................................................

 iter      E             dE          RMSdq      gap      omega  full diag
   1    -63.8107448 -0.638107E+02  0.255E-01    4.51       0.0  T
   2    -63.8108355 -0.906934E-04  0.147E-01    4.47       1.0  T
   3    -63.8108396 -0.413687E-05  0.317E-02    4.48       1.0  T
   4    -63.8108453 -0.566698E-05  0.148E-02    4.47       1.0  T
   5    -63.8108452  0.480740E-07  0.807E-03    4.48       1.7  T
   6    -63.8108455 -0.246955E-06  0.128E-03    4.48      11.0  T
   7    -63.8108455 -0.982467E-08  0.773E-04    4.48      18.1  T
   8    -63.8108455 -0.140253E-08  0.340E-04    4.48      41.2  T
     SCC iter.                  ...        0 min,  0.063 sec
     gradient                   ...        0 min,  0.050 sec
 * total energy  :   -63.1282291 Eh     change       -0.1589472E-01 Eh
   gradient norm :     0.0922550 Eh/α   predicted    -0.1835623E-01 (  15.49%)
   displ. norm   :     0.6036377 α      lambda       -0.2258183E-01
   maximum displ.:     0.2380878 α      in ANC's #20, #27, #38, ...
 * RMSD in coord.:     1.5303585 α      energy gain  -0.2653945E+01 Eh

generating ANC from exact Hessian ...
Using Lindh-Hessian (1995)
 Shifting diagonal of input Hessian by    1.5997048858067554E-002
 Lowest  eigenvalues of input Hessian
    0.010000    0.015316    0.015686    0.015776    0.015820    0.000000
    0.000000    0.000000    0.000000    0.000000    0.000000    0.016040
    0.016094    0.016119    0.016207    0.016246    0.016409    0.016421
 Highest eigenvalues
    1.377824    1.413148    1.413677    1.416931    1.419712    1.426084


........................................................................
.............................. CYCLE   21 ..............................
........................................................................

 iter      E             dE          RMSdq      gap      omega  full diag
   1    -63.8145786 -0.638146E+02  0.169E-01    4.75       0.0  T
   2    -63.8146755 -0.969213E-04  0.102E-01    4.71       1.0  T
   3    -63.8146810 -0.543142E-05  0.350E-02    4.71       1.0  T
   4    -63.8146875 -0.655861E-05  0.150E-02    4.71       1.0  T
   5    -63.8146877 -0.143418E-06  0.892E-03    4.71       1.6  T
   6    -63.8146878 -0.175799E-06  0.211E-03    4.71       6.6  T
   7    -63.8146878 -0.183447E-07  0.856E-04    4.71      16.4  T
   8    -63.8146878 -0.163804E-08  0.346E-04    4.71      40.4  T
     SCC iter.                  ...        0 min,  0.071 sec
     gradient                   ...        0 min,  0.049 sec
 * total energy  :   -63.1427435 Eh     change       -0.1451441E-01 Eh
   gradient norm :     0.0566660 Eh/α   predicted     0.0000000E+00 (-100.00%)
   displ. norm   :     0.5395256 α      lambda       -0.1734096E-01
   maximum displ.:     0.2032914 α      in ANC's #35, #27, #40, ...

........................................................................
.............................. CYCLE   22 ..............................
........................................................................

 iter      E             dE          RMSdq      gap      omega  full diag
   1    -63.8280570 -0.638281E+02  0.181E-01    4.77       0.0  T
   2    -63.8280848 -0.278406E-04  0.106E-01    4.75       1.0  T
   3    -63.8280880 -0.316616E-05  0.243E-02    4.75       1.0  T
   4    -63.8280895 -0.152881E-05  0.145E-02    4.75       1.0  T
   5    -63.8280897 -0.157626E-06  0.301E-03    4.75       4.7  T
   6    -63.8280897 -0.303769E-07  0.885E-04    4.75      15.8  T
   7    -63.8280897 -0.330682E-08  0.470E-04    4.75      29.8  T
     SCC iter.                  ...        0 min,  0.074 sec
     gradient                   ...        0 min,  0.066 sec
 * total energy  :   -63.1563912 Eh     change       -0.1364772E-01 Eh
   gradient norm :     0.0282738 Eh/α   predicted    -0.1119474E-01 ( -17.97%)
   displ. norm   :     0.6738210 α      lambda       -0.1273589E-01
   maximum displ.:     0.2539152 α      in ANC's #40, #35, #41, ...

........................................................................
.............................. CYCLE   23 ..............................
........................................................................

 iter      E             dE          RMSdq      gap      omega  full diag
   1    -63.8357920 -0.638358E+02  0.165E-01    4.84       0.0  T
   2    -63.8358322 -0.401357E-04  0.983E-02    4.80       1.0  T
   3    -63.8358356 -0.349177E-05  0.283E-02    4.81       1.0  T
   4    -63.8358390 -0.340166E-05  0.179E-02    4.80       1.0  T
   5    -63.8358393 -0.243120E-06  0.467E-03    4.80       3.0  T
   6    -63.8358394 -0.703500E-07  0.104E-03    4.80      13.5  T
   7    -63.8358394 -0.686595E-08  0.528E-04    4.80      26.5  T
   8    -63.8358394 -0.773568E-09  0.280E-04    4.80      50.0  T
     SCC iter.                  ...        0 min,  0.111 sec
     gradient                   ...        0 min,  0.086 sec
 * total energy  :   -63.1664977 Eh     change       -0.1010652E-01 Eh
   gradient norm :     0.0231009 Eh/α   predicted    -0.9259215E-02 (  -8.38%)
   displ. norm   :     0.7014694 α      lambda       -0.8877464E-02
   maximum displ.:     0.2635024 α      in ANC's #40, #35, #41, ...

........................................................................
.............................. CYCLE   24 ..............................
........................................................................

 iter      E             dE          RMSdq      gap      omega  full diag
   1    -63.8403208 -0.638403E+02  0.144E-01    4.94       0.0  T
   2    -63.8403604 -0.395927E-04  0.862E-02    4.90       1.0  T
   3    -63.8403645 -0.406808E-05  0.258E-02    4.89       1.0  T
   4    -63.8403675 -0.307066E-05  0.158E-02    4.88       1.0  T
   5    -63.8403679 -0.321715E-06  0.618E-03    4.89       2.3  T
   6    -63.8403680 -0.965381E-07  0.820E-04    4.89      17.1  T
   7    -63.8403680 -0.610254E-08  0.473E-04    4.89      29.6  T
     SCC iter.                  ...        0 min,  0.122 sec
     gradient                   ...        0 min,  0.093 sec
 * total energy  :   -63.1737970 Eh     change       -0.7299263E-02 Eh
   gradient norm :     0.0279779 Eh/α   predicted    -0.6622864E-02 (  -9.27%)
   displ. norm   :     0.6988338 α      lambda       -0.6989493E-02
   maximum displ.:     0.2384266 α      in ANC's #40, #41, #35, ...

........................................................................
.............................. CYCLE   25 ..............................
........................................................................

 iter      E             dE          RMSdq      gap      omega  full diag
   1    -63.8503317 -0.638503E+02  0.128E-01    5.05       0.0  T
   2    -63.8503686 -0.369169E-04  0.759E-02    5.01       1.0  T
   3    -63.8503725 -0.392401E-05  0.252E-02    5.00       1.0  T
   4    -63.8503747 -0.213733E-05  0.168E-02    5.00       1.0  T
   5    -63.8503750 -0.300413E-06  0.695E-03    5.00       2.0  T
   6    -63.8503751 -0.123102E-06  0.741E-04    5.00      18.9  T
   7    -63.8503751 -0.478042E-08  0.435E-04    5.00      32.2  T
     SCC iter.                  ...        0 min,  0.089 sec
     gradient                   ...        0 min,  0.056 sec
 * total energy  :   -63.1794399 Eh     change       -0.5642921E-02 Eh
   gradient norm :     0.0196805 Eh/α   predicted    -0.5201475E-02 (  -7.82%)
   displ. norm   :     0.6931325 α      lambda       -0.5148568E-02
   maximum displ.:     0.2471881 α      in ANC's #40, #41, #10, ...

........................................................................
.............................. CYCLE   26 ..............................
........................................................................

 iter      E             dE          RMSdq      gap      omega  full diag
   1    -63.8544207 -0.638544E+02  0.132E-01    5.13       0.0  T
   2    -63.8544585 -0.378151E-04  0.775E-02    5.09       1.0  T
   3    -63.8544628 -0.435747E-05  0.239E-02    5.08       1.0  T
   4    -63.8544647 -0.183363E-05  0.156E-02    5.07       1.0  T
   5    -63.8544649 -0.234254E-06  0.686E-03    5.08       2.0  T
   6    -63.8544650 -0.110623E-06  0.722E-04    5.08      19.4  T
   7    -63.8544650 -0.249690E-08  0.429E-04    5.08      32.7  T
     SCC iter.                  ...        0 min,  0.108 sec
     gradient                   ...        0 min,  0.096 sec
 * total energy  :   -63.1831941 Eh     change       -0.3754207E-02 Eh
   gradient norm :     0.0265498 Eh/α   predicted    -0.3811057E-02 (   1.51%)
   displ. norm   :     0.6821925 α      lambda       -0.4742123E-02
   maximum displ.:     0.2199534 α      in ANC's #7, #41, #40, ...

........................................................................
.............................. CYCLE   27 ..............................
........................................................................

 iter      E             dE          RMSdq      gap      omega  full diag
   1    -63.8647219 -0.638647E+02  0.136E-01    5.20       0.0  T
   2    -63.8647426 -0.207663E-04  0.812E-02    5.17       1.0  T
   3    -63.8647470 -0.432749E-05  0.199E-02    5.17       1.0  T
   4    -63.8647479 -0.919476E-06  0.149E-02    5.17       1.0  T
   5    -63.8647480 -0.149302E-06  0.448E-03    5.17       3.1  T
   6    -63.8647481 -0.623587E-07  0.631E-04    5.17      22.2  T
   7    -63.8647481 -0.920863E-09  0.373E-04    5.17      37.6  T
     SCC iter.                  ...        0 min,  0.142 sec
     gradient                   ...        0 min,  0.054 sec
 * total energy  :   -63.1854648 Eh     change       -0.2270710E-02 Eh
   gradient norm :     0.0327070 Eh/α   predicted    -0.3474528E-02 (  53.02%)
   displ. norm   :     0.4347280 α      lambda       -0.2506632E-02
   maximum displ.:     0.1408675 α      in ANC's #7, #40, #2, ...

........................................................................
.............................. CYCLE   28 ..............................
........................................................................

 iter      E             dE          RMSdq      gap      omega  full diag
   1    -63.8613940 -0.638614E+02  0.835E-02    5.20       0.0  T
   2    -63.8614011 -0.712982E-05  0.509E-02    5.18       1.0  T
   3    -63.8614028 -0.167859E-05  0.963E-03    5.17       1.5  T
   4    -63.8614031 -0.300565E-06  0.615E-03    5.17       2.3  T
   5    -63.8614032 -0.302137E-07  0.233E-03    5.17       6.0  T
   6    -63.8614032 -0.142154E-07  0.319E-04    5.17      44.0  T
   7    -63.8614032 -0.303231E-09  0.169E-04    5.17      82.8  T
     SCC iter.                  ...        0 min,  0.089 sec
     gradient                   ...        0 min,  0.076 sec
 * total energy  :   -63.1873422 Eh     change       -0.1877358E-02 Eh
   gradient norm :     0.0149465 Eh/α   predicted    -0.1490180E-02 ( -20.62%)
   displ. norm   :     0.5441272 α      lambda       -0.2070877E-02
   maximum displ.:     0.1996379 α      in ANC's #7, #22, #40, ...

........................................................................
.............................. CYCLE   29 ..............................
........................................................................

 iter      E             dE          RMSdq      gap      omega  full diag
   1    -63.8623853 -0.638624E+02  0.109E-01    5.17       0.0  T
   2    -63.8623975 -0.122768E-04  0.647E-02    5.16       1.0  T
   3    -63.8623994 -0.181278E-05  0.109E-02    5.15       1.3  T
   4    -63.8623999 -0.542213E-06  0.556E-03    5.15       2.5  T
   5    -63.8623999 -0.410356E-07  0.251E-03    5.15       5.6  T
   6    -63.8623999 -0.936696E-08  0.484E-04    5.15      28.9  T
   7    -63.8623999 -0.112319E-08  0.253E-04    5.15      55.4  T
     SCC iter.                  ...        0 min,  0.063 sec
     gradient                   ...        0 min,  0.055 sec
 * total energy  :   -63.1883958 Eh     change       -0.1053581E-02 Eh
   gradient norm :     0.0248167 Eh/α   predicted    -0.1342010E-02 (  27.38%)
   displ. norm   :     0.4448970 α      lambda       -0.1721236E-02
   maximum displ.:     0.1875800 α      in ANC's #7, #2, #22, ...

........................................................................
.............................. CYCLE   30 ..............................
........................................................................

 iter      E             dE          RMSdq      gap      omega  full diag
   1    -63.8594161 -0.638594E+02  0.102E-01    5.13       0.0  T
   2    -63.8594265 -0.104229E-04  0.599E-02    5.13       1.0  T
   3    -63.8594289 -0.237375E-05  0.828E-03    5.11       1.7  T
   4    -63.8594292 -0.317869E-06  0.414E-03    5.12       3.4  T
   5    -63.8594292 -0.415693E-07  0.251E-03    5.12       5.6  T
   6    -63.8594293 -0.652239E-08  0.641E-04    5.12      21.9  T
   7    -63.8594293 -0.635829E-09  0.223E-04    5.12      62.8  T
     SCC iter.                  ...        0 min,  0.059 sec
     gradient                   ...        0 min,  0.056 sec
 * total energy  :   -63.1891019 Eh     change       -0.7061254E-03 Eh
   gradient norm :     0.0261785 Eh/α   predicted    -0.1030965E-02 (  46.00%)
   displ. norm   :     0.4085659 α      lambda       -0.2459878E-02
   maximum displ.:     0.1786891 α      in ANC's #7, #22, #26, ...

........................................................................
.............................. CYCLE   31 ..............................
........................................................................

 iter      E             dE          RMSdq      gap      omega  full diag
   1    -63.8677737 -0.638678E+02  0.174E-01    5.13       0.0  T
   2    -63.8677995 -0.258071E-04  0.101E-01    5.12       1.0  T
   3    -63.8678056 -0.618817E-05  0.132E-02    5.13       1.1  T
   4    -63.8678065 -0.828383E-06  0.652E-03    5.13       2.1  T
   5    -63.8678066 -0.106814E-06  0.458E-03    5.13       3.1  T
   6    -63.8678066 -0.209262E-07  0.992E-04    5.13      14.1  T
   7    -63.8678066 -0.381872E-08  0.372E-04    5.13      37.6  T
     SCC iter.                  ...        0 min,  0.079 sec
     gradient                   ...        0 min,  0.063 sec
 * total energy  :   -63.1881514 Eh     change        0.9504640E-03 Eh
   gradient norm :     0.0484146 Eh/α   predicted    -0.1435248E-02 (-251.00%)
   displ. norm   :     0.1707625 α      lambda       -0.3641894E-02
   maximum displ.:     0.0992490 α      in ANC's #26, #49, #40, ...

........................................................................
.............................. CYCLE   32 ..............................
........................................................................

 iter      E             dE          RMSdq      gap      omega  full diag
   1    -63.8625496 -0.638625E+02  0.121E-01    5.15       0.0  T
   2    -63.8625703 -0.207306E-04  0.683E-02    5.14       1.0  T
   3    -63.8625731 -0.277216E-05  0.115E-02    5.14       1.2  T
   4    -63.8625735 -0.404300E-06  0.405E-03    5.14       3.5  T
   5    -63.8625736 -0.584870E-07  0.256E-03    5.14       5.5  T
   6    -63.8625736 -0.103913E-07  0.112E-03    5.14      12.4  T
   7    -63.8625736 -0.280951E-08  0.254E-04    5.14      55.1  T
   8    -63.8625736 -0.137440E-09  0.158E-04    5.14      88.7  T
     SCC iter.                  ...        0 min,  0.148 sec
     gradient                   ...        0 min,  0.077 sec
 * total energy  :   -63.1899992 Eh     change       -0.1847773E-02 Eh
   gradient norm :     0.0166391 Eh/α   predicted    -0.1874049E-02 (   1.42%)
   displ. norm   :     0.1895466 α      lambda       -0.1150439E-02
   maximum displ.:     0.0775101 α      in ANC's #7, #41, #13, ...

........................................................................
.............................. CYCLE   33 ..............................
........................................................................

 iter      E             dE          RMSdq      gap      omega  full diag
   1    -63.8688500 -0.638689E+02  0.125E-01    5.15       0.0  T
   2    -63.8688629 -0.128162E-04  0.716E-02    5.14       1.0  T
   3    -63.8688651 -0.225400E-05  0.928E-03    5.14       1.5  T
   4    -63.8688654 -0.334254E-06  0.448E-03    5.14       3.1  T
   5    -63.8688655 -0.445033E-07  0.280E-03    5.14       5.0  T
   6    -63.8688655 -0.952183E-08  0.595E-04    5.14      23.5  T
   7    -63.8688655 -0.115477E-08  0.281E-04    5.14      49.8  T
     SCC iter.                  ...        0 min,  0.132 sec
     gradient                   ...        0 min,  0.096 sec
 * total energy  :   -63.1901223 Eh     change       -0.1230688E-03 Eh
   gradient norm :     0.0237788 Eh/α   predicted    -0.5958877E-03 ( 384.19%)
   displ. norm   :     0.2441251 α      lambda       -0.9039894E-03
   maximum displ.:     0.1154566 α      in ANC's #7, #22, #2, ...

........................................................................
.............................. CYCLE   34 ..............................
........................................................................

 iter      E             dE          RMSdq      gap      omega  full diag
   1    -63.8622110 -0.638622E+02  0.539E-02    5.16       0.0  T
   2    -63.8622154 -0.439303E-05  0.315E-02    5.16       1.0  T
   3    -63.8622161 -0.640110E-06  0.521E-03    5.16       2.7  T
   4    -63.8622162 -0.801936E-07  0.233E-03    5.16       6.0  T
   5    -63.8622162 -0.108607E-07  0.117E-03    5.16      12.0  T
   6    -63.8622162 -0.150436E-08  0.376E-04    5.16      37.3  T
   7    -63.8622162 -0.350639E-09  0.946E-05    5.16     147.9  T
     SCC iter.                  ...        0 min,  0.061 sec
     gradient                   ...        0 min,  0.055 sec
 * total energy  :   -63.1906731 Eh     change       -0.5507870E-03 Eh
   gradient norm :     0.0130612 Eh/α   predicted    -0.4789329E-03 ( -13.05%)
   displ. norm   :     0.2994031 α      lambda       -0.1085127E-02
   maximum displ.:     0.1499715 α      in ANC's #7, #34, #4, ...

........................................................................
.............................. CYCLE   35 ..............................
........................................................................

 iter      E             dE          RMSdq      gap      omega  full diag
   1    -63.8694212 -0.638694E+02  0.813E-02    5.16       0.0  T
   2    -63.8694283 -0.716503E-05  0.467E-02    5.15       1.0  T
   3    -63.8694304 -0.210961E-05  0.871E-03    5.15       1.6  T
   4    -63.8694307 -0.252024E-06  0.513E-03    5.16       2.7  T
   5    -63.8694307 -0.528074E-07  0.302E-03    5.16       4.6  T
   6    -63.8694308 -0.119648E-07  0.365E-04    5.16      38.4  T
   7    -63.8694308 -0.754405E-09  0.218E-04    5.16      64.2  T
     SCC iter.                  ...        0 min,  0.077 sec
     gradient                   ...        0 min,  0.098 sec
 * total energy  :   -63.1904050 Eh     change        0.2680510E-03 Eh
   gradient norm :     0.0373868 Eh/α   predicted    -0.5912015E-03 (-320.56%)
   displ. norm   :     0.1715392 α      lambda       -0.1589556E-02
   maximum displ.:     0.0767808 α      in ANC's #7, #40, #28, ...

........................................................................
.............................. CYCLE   36 ..............................
........................................................................

 iter      E             dE          RMSdq      gap      omega  full diag
   1    -63.8662202 -0.638662E+02  0.719E-02    5.19       0.0  T
   2    -63.8662262 -0.600931E-05  0.408E-02    5.19       1.0  T
   3    -63.8662272 -0.104303E-05  0.756E-03    5.19       1.9  T
   4    -63.8662275 -0.302002E-06  0.297E-03    5.19       4.7  T
   5    -63.8662275 -0.306928E-07  0.184E-03    5.19       7.6  T
   6    -63.8662275 -0.515835E-08  0.506E-04    5.19      27.7  T
   7    -63.8662275 -0.839371E-09  0.147E-04    5.19      95.3  T
     SCC iter.                  ...        0 min,  0.131 sec
     gradient                   ...        0 min,  0.056 sec
 * total energy  :   -63.1912870 Eh     change       -0.8819776E-03 Eh
   gradient norm :     0.0120645 Eh/α   predicted    -0.8181696E-03 (  -7.23%)
   displ. norm   :     0.2670066 α      lambda       -0.5480148E-03
   maximum displ.:     0.1480608 α      in ANC's #7, #2, #4, ...

........................................................................
.............................. CYCLE   37 ..............................
........................................................................

 iter      E             dE          RMSdq      gap      omega  full diag
   1    -63.8634023 -0.638634E+02  0.739E-02    5.21       0.0  T
   2    -63.8634047 -0.238020E-05  0.422E-02    5.20       1.0  T
   3    -63.8634054 -0.699701E-06  0.477E-03    5.20       2.9  T
   4    -63.8634055 -0.725024E-07  0.210E-03    5.20       6.7  T
   5    -63.8634055 -0.962866E-08  0.110E-03    5.20      12.7  T
   6    -63.8634055 -0.234382E-08  0.266E-04    5.20      52.6  T
   7    -63.8634055 -0.165336E-09  0.148E-04    5.20      94.3  T
     SCC iter.                  ...        0 min,  0.128 sec
     gradient                   ...        0 min,  0.061 sec
 * total energy  :   -63.1915920 Eh     change       -0.3050060E-03 Eh
   gradient norm :     0.0109563 Eh/α   predicted    -0.2935435E-03 (  -3.76%)
   displ. norm   :     0.3660193 α      lambda       -0.5357940E-03
   maximum displ.:     0.2035775 α      in ANC's #7, #37, #12, ...

........................................................................
.............................. CYCLE   38 ..............................
........................................................................

 iter      E             dE          RMSdq      gap      omega  full diag
   1    -63.8646205 -0.638646E+02  0.639E-02    5.23       0.0  T
   2    -63.8646228 -0.222566E-05  0.366E-02    5.23       1.0  T
   3    -63.8646230 -0.233769E-06  0.387E-03    5.23       3.6  T
   4    -63.8646231 -0.113762E-06  0.220E-03    5.23       6.4  T
   5    -63.8646231 -0.698759E-08  0.104E-03    5.23      13.5  T
   6    -63.8646231 -0.738453E-09  0.177E-04    5.23      79.2  T
   7    -63.8646231 -0.208473E-09  0.919E-05    5.23     152.4  T
     SCC iter.                  ...        0 min,  0.120 sec
     gradient                   ...        0 min,  0.056 sec
 * total energy  :   -63.1920471 Eh     change       -0.4551414E-03 Eh
   gradient norm :     0.0096691 Eh/α   predicted    -0.3037902E-03 ( -33.25%)
   displ. norm   :     0.6111051 α      lambda       -0.1050822E-02
   maximum displ.:     0.3111377 α      in ANC's #7, #37, #12, ...

........................................................................
.............................. CYCLE   39 ..............................
........................................................................

 iter      E             dE          RMSdq      gap      omega  full diag
   1    -63.8706013 -0.638706E+02  0.995E-02    5.29       0.0  T
   2    -63.8706079 -0.659567E-05  0.575E-02    5.29       1.0  T
   3    -63.8706086 -0.713791E-06  0.595E-03    5.30       2.4  T
   4    -63.8706089 -0.253404E-06  0.411E-03    5.29       3.4  T
   5    -63.8706089 -0.169688E-07  0.220E-03    5.29       6.4  T
   6    -63.8706089 -0.113427E-08  0.242E-04    5.29      57.8  T
   7    -63.8706089 -0.614392E-09  0.752E-05    5.29     186.1  T
     SCC iter.                  ...        0 min,  0.133 sec
     gradient                   ...        0 min,  0.086 sec
 * total energy  :   -63.1928469 Eh     change       -0.7997814E-03 Eh
   gradient norm :     0.0136247 Eh/α   predicted    -0.7216248E-03 (  -9.77%)
   displ. norm   :     0.6860085 α      lambda       -0.1168419E-02
   maximum displ.:     0.3289706 α      in ANC's #7, #37, #12, ...

........................................................................
.............................. CYCLE   40 ..............................
........................................................................

 iter      E             dE          RMSdq      gap      omega  full diag
   1    -63.8687607 -0.638688E+02  0.115E-01    5.34       0.0  T
   2    -63.8687661 -0.533344E-05  0.675E-02    5.34       1.0  T
   3    -63.8687670 -0.910089E-06  0.496E-03    5.34       2.8  T
   4    -63.8687671 -0.128678E-06  0.329E-03    5.34       4.3  T
   5    -63.8687671 -0.133161E-07  0.155E-03    5.34       9.0  T
   6    -63.8687671 -0.302786E-08  0.295E-04    5.34      47.4  T
   7    -63.8687671 -0.388553E-09  0.133E-04    5.34     105.0  T
     SCC iter.                  ...        0 min,  0.056 sec
     gradient                   ...        0 min,  0.054 sec
 * total energy  :   -63.1936669 Eh     change       -0.8199685E-03 Eh
   gradient norm :     0.0201871 Eh/α   predicted    -0.8591430E-03 (   4.78%)
   displ. norm   :     0.5206958 α      lambda       -0.1205160E-02
   maximum displ.:     0.2227268 α      in ANC's #37, #7, #12, ...

........................................................................
.............................. CYCLE   41 ..............................
........................................................................

 iter      E             dE          RMSdq      gap      omega  full diag
   1    -63.8691652 -0.638692E+02  0.795E-02    5.36       0.0  T
   2    -63.8691681 -0.293384E-05  0.474E-02    5.37       1.0  T
   3    -63.8691687 -0.547234E-06  0.359E-03    5.37       3.9  T
   4    -63.8691687 -0.779312E-07  0.221E-03    5.37       6.3  T
   5    -63.8691687 -0.877532E-08  0.965E-04    5.37      14.5  T
   6    -63.8691687 -0.179438E-08  0.249E-04    5.37      56.2  T
     SCC iter.                  ...        0 min,  0.068 sec
     gradient                   ...        0 min,  0.061 sec
 * total energy  :   -63.1945631 Eh     change       -0.8961734E-03 Eh
   gradient norm :     0.0183071 Eh/α   predicted    -0.7659539E-03 ( -14.53%)
   displ. norm   :     0.5021231 α      lambda       -0.1388644E-02
   maximum displ.:     0.2381967 α      in ANC's #37, #7, #12, ...

........................................................................
.............................. CYCLE   42 ..............................
........................................................................

 iter      E             dE          RMSdq      gap      omega  full diag
   1    -63.8728538 -0.638729E+02  0.907E-02    5.38       0.0  T
   2    -63.8728582 -0.440736E-05  0.538E-02    5.39       1.0  T
   3    -63.8728589 -0.727093E-06  0.450E-03    5.39       3.1  T
   4    -63.8728591 -0.105604E-06  0.208E-03    5.39       6.7  T
   5    -63.8728591 -0.126081E-07  0.946E-04    5.39      14.8  T
   6    -63.8728591 -0.253261E-08  0.325E-04    5.39      43.0  T
     SCC iter.                  ...        0 min,  0.116 sec
     gradient                   ...        0 min,  0.102 sec
 * total energy  :   -63.1954451 Eh     change       -0.8820710E-03 Eh
   gradient norm :     0.0165446 Eh/α   predicted    -0.8693789E-03 (  -1.44%)
   displ. norm   :     0.5813070 α      lambda       -0.1359771E-02
   maximum displ.:     0.2702791 α      in ANC's #37, #7, #2, ...
 * RMSD in coord.:     1.0342135 α      energy gain  -0.6721604E-01 Eh

generating ANC from exact Hessian ...
Using Lindh-Hessian (1995)
 Shifting diagonal of input Hessian by    1.0929001986866298E-002
 Lowest  eigenvalues of input Hessian
    0.010000    0.010481    0.010701    0.010727    0.010782    0.000000
    0.000000    0.000000    0.000000    0.000000    0.000000    0.010993
    0.011062    0.011175    0.011324    0.011343    0.011595    0.011653
 Highest eigenvalues
    1.401515    1.410959    1.413420    1.425689    1.434299    1.494180


........................................................................
.............................. CYCLE   43 ..............................
........................................................................

 iter      E             dE          RMSdq      gap      omega  full diag
   1    -63.8618298 -0.638618E+02  0.973E-02    5.38       0.0  T
   2    -63.8618383 -0.847276E-05  0.575E-02    5.38       1.0  T
   3    -63.8618392 -0.972706E-06  0.681E-03    5.38       2.1  T
   4    -63.8618394 -0.160414E-06  0.303E-03    5.38       4.6  T
   5    -63.8618394 -0.120148E-07  0.124E-03    5.38      11.3  T
   6    -63.8618394 -0.304748E-08  0.531E-04    5.38      26.4  T
   7    -63.8618394 -0.440998E-09  0.156E-04    5.38      90.0  T
     SCC iter.                  ...        0 min,  0.139 sec
     gradient                   ...        0 min,  0.112 sec
 * total energy  :   -63.1961305 Eh     change       -0.6853134E-03 Eh
   gradient norm :     0.0220789 Eh/α   predicted     0.0000000E+00 (-100.00%)
   displ. norm   :     0.1889409 α      lambda       -0.1419654E-02
   maximum displ.:     0.0612442 α      in ANC's #35, #21, #1, ...

........................................................................
.............................. CYCLE   44 ..............................
........................................................................

 iter      E             dE          RMSdq      gap      omega  full diag
   1    -63.8716259 -0.638716E+02  0.602E-02    5.38       0.0  T
   2    -63.8716303 -0.435081E-05  0.345E-02    5.39       1.0  T
   3    -63.8716306 -0.386945E-06  0.572E-03    5.38       2.5  T
   4    -63.8716308 -0.136374E-06  0.182E-03    5.39       7.7  T
   5    -63.8716308 -0.299924E-08  0.995E-04    5.39      14.1  T
   6    -63.8716308 -0.125465E-08  0.249E-04    5.39      56.3  T
     SCC iter.                  ...        0 min,  0.099 sec
     gradient                   ...        0 min,  0.064 sec
 * total energy  :   -63.1971812 Eh     change       -0.1050794E-02 Eh
   gradient norm :     0.0072701 Eh/α   predicted    -0.7351838E-03 ( -30.04%)
   displ. norm   :     0.3488432 α      lambda       -0.1126371E-02
   maximum displ.:     0.1242389 α      in ANC's #35, #1, #21, ...

........................................................................
.............................. CYCLE   45 ..............................
........................................................................

 iter      E             dE          RMSdq      gap      omega  full diag
   1    -63.8770296 -0.638770E+02  0.775E-02    5.37       0.0  T
   2    -63.8770336 -0.394470E-05  0.454E-02    5.38       1.0  T
   3    -63.8770340 -0.456574E-06  0.642E-03    5.38       2.2  T
   4    -63.8770343 -0.249893E-06  0.229E-03    5.39       6.1  T
   5    -63.8770343 -0.418707E-08  0.114E-03    5.39      12.2  T
   6    -63.8770343 -0.217928E-08  0.313E-04    5.39      44.7  T
   7    -63.8770343 -0.295216E-09  0.943E-05    5.39     148.5  T
     SCC iter.                  ...        0 min,  0.140 sec
     gradient                   ...        0 min,  0.054 sec
 * total energy  :   -63.1980194 Eh     change       -0.8381808E-03 Eh
   gradient norm :     0.0078001 Eh/α   predicted    -0.6317636E-03 ( -24.63%)
   displ. norm   :     0.4774972 α      lambda       -0.9844471E-03
   maximum displ.:     0.1911641 α      in ANC's #35, #1, #13, ...

........................................................................
.............................. CYCLE   46 ..............................
........................................................................

 iter      E             dE          RMSdq      gap      omega  full diag
   1    -63.8756633 -0.638757E+02  0.868E-02    5.35       0.0  T
   2    -63.8756695 -0.624674E-05  0.518E-02    5.37       1.0  T
   3    -63.8756699 -0.402007E-06  0.822E-03    5.38       1.7  T
   4    -63.8756704 -0.442795E-06  0.337E-03    5.38       4.2  T
   5    -63.8756704 -0.100722E-07  0.162E-03    5.38       8.7  T
   6    -63.8756704 -0.507666E-08  0.301E-04    5.38      46.6  T
   7    -63.8756704 -0.614790E-09  0.908E-05    5.38     154.2  T
     SCC iter.                  ...        0 min,  0.075 sec
     gradient                   ...        0 min,  0.066 sec
 * total energy  :   -63.1988346 Eh     change       -0.8151408E-03 Eh
   gradient norm :     0.0125868 Eh/α   predicted    -0.6044852E-03 ( -25.84%)
   displ. norm   :     0.6413227 α      lambda       -0.1181972E-02
   maximum displ.:     0.2623549 α      in ANC's #1, #35, #13, ...

........................................................................
.............................. CYCLE   47 ..............................
........................................................................

 iter      E             dE          RMSdq      gap      omega  full diag
   1    -63.8693136 -0.638693E+02  0.113E-01    5.32       0.0  T
   2    -63.8693270 -0.133048E-04  0.680E-02    5.35       1.0  T
   3    -63.8693277 -0.740198E-06  0.113E-02    5.36       1.2  T
   4    -63.8693285 -0.774321E-06  0.548E-03    5.36       2.6  T
   5    -63.8693285 -0.291600E-07  0.240E-03    5.36       5.8  T
   6    -63.8693285 -0.126619E-07  0.451E-04    5.36      31.0  T
   7    -63.8693285 -0.125031E-08  0.147E-04    5.36      95.4  T
     SCC iter.                  ...        0 min,  0.085 sec
     gradient                   ...        0 min,  0.091 sec
 * total energy  :   -63.1996685 Eh     change       -0.8339569E-03 Eh
   gradient norm :     0.0156142 Eh/α   predicted    -0.8340584E-03 (   0.01%)
   displ. norm   :     0.4288438 α      lambda       -0.8725091E-03
   maximum displ.:     0.2048767 α      in ANC's #1, #11, #13, ...

........................................................................
.............................. CYCLE   48 ..............................
........................................................................

 iter      E             dE          RMSdq      gap      omega  full diag
   1    -63.8680352 -0.638680E+02  0.754E-02    5.32       0.0  T
   2    -63.8680411 -0.588872E-05  0.458E-02    5.34       1.0  T
   3    -63.8680415 -0.458064E-06  0.769E-03    5.35       1.8  T
   4    -63.8680419 -0.370944E-06  0.439E-03    5.35       3.2  T
   5    -63.8680419 -0.203149E-07  0.166E-03    5.35       8.4  T
   6    -63.8680419 -0.749280E-08  0.291E-04    5.35      48.2  T
   7    -63.8680419 -0.821700E-09  0.123E-04    5.35     113.9  T
     SCC iter.                  ...        0 min,  0.082 sec
     gradient                   ...        0 min,  0.056 sec
 * total energy  :   -63.2003778 Eh     change       -0.7093143E-03 Eh
   gradient norm :     0.0152806 Eh/α   predicted    -0.5164853E-03 ( -27.19%)
   displ. norm   :     0.5228320 α      lambda       -0.1449671E-02
   maximum displ.:     0.2646253 α      in ANC's #1, #11, #6, ...

........................................................................
.............................. CYCLE   49 ..............................
........................................................................

 iter      E             dE          RMSdq      gap      omega  full diag
   1    -63.8756142 -0.638756E+02  0.966E-02    5.33       0.0  T
   2    -63.8756242 -0.998480E-05  0.580E-02    5.35       1.0  T
   3    -63.8756256 -0.134257E-05  0.703E-03    5.36       2.0  T
   4    -63.8756259 -0.348103E-06  0.413E-03    5.36       3.4  T
   5    -63.8756259 -0.324856E-07  0.195E-03    5.35       7.2  T
   6    -63.8756260 -0.804549E-08  0.372E-04    5.35      37.6  T
   7    -63.8756260 -0.119634E-08  0.150E-04    5.35      93.2  T
     SCC iter.                  ...        0 min,  0.075 sec
     gradient                   ...        0 min,  0.056 sec
 * total energy  :   -63.2014263 Eh     change       -0.1048424E-02 Eh
   gradient norm :     0.0170138 Eh/α   predicted    -0.9229715E-03 ( -11.97%)
   displ. norm   :     0.7289758 α      lambda       -0.1618089E-02
   maximum displ.:     0.3579462 α      in ANC's #1, #11, #13, ...

........................................................................
.............................. CYCLE   50 ..............................
........................................................................

 iter      E             dE          RMSdq      gap      omega  full diag
   1    -63.8715567 -0.638716E+02  0.142E-01    5.31       0.0  T
   2    -63.8715731 -0.163787E-04  0.857E-02    5.35       1.0  T
   3    -63.8715752 -0.211463E-05  0.138E-02    5.35       1.0  T
   4    -63.8715761 -0.973333E-06  0.920E-03    5.35       1.5  T
   5    -63.8715762 -0.578414E-07  0.315E-03    5.35       4.4  T
   6    -63.8715762 -0.302473E-07  0.525E-04    5.35      26.7  T
   7    -63.8715762 -0.152342E-08  0.188E-04    5.35      74.5  T
     SCC iter.                  ...        0 min,  0.119 sec
     gradient                   ...        0 min,  0.057 sec
 * total energy  :   -63.2026400 Eh     change       -0.1213754E-02 Eh
   gradient norm :     0.0261129 Eh/α   predicted    -0.1238982E-02 (   2.08%)
   displ. norm   :     0.6454115 α      lambda       -0.2197783E-02
   maximum displ.:     0.3291118 α      in ANC's #1, #11, #33, ...

........................................................................
.............................. CYCLE   51 ..............................
........................................................................

 iter      E             dE          RMSdq      gap      omega  full diag
   1    -63.8741271 -0.638741E+02  0.151E-01    5.34       0.0  T
   2    -63.8741427 -0.156554E-04  0.880E-02    5.37       1.0  T
   3    -63.8741450 -0.231160E-05  0.960E-03    5.38       1.5  T
   4    -63.8741455 -0.499756E-06  0.566E-03    5.38       2.5  T
   5    -63.8741456 -0.542559E-07  0.300E-03    5.38       4.7  T
   6    -63.8741456 -0.930217E-08  0.432E-04    5.38      32.5  T
   7    -63.8741456 -0.117850E-08  0.208E-04    5.38      67.3  T
     SCC iter.                  ...        0 min,  0.061 sec
     gradient                   ...        0 min,  0.093 sec
 * total energy  :   -63.2043962 Eh     change       -0.1756222E-02 Eh
   gradient norm :     0.0176274 Eh/α   predicted    -0.1556641E-02 ( -11.36%)
   displ. norm   :     0.5715827 α      lambda       -0.2620006E-02
   maximum displ.:     0.2758786 α      in ANC's #1, #11, #33, ...

........................................................................
.............................. CYCLE   52 ..............................
........................................................................

 iter      E             dE          RMSdq      gap      omega  full diag
   1    -63.8960881 -0.638961E+02  0.159E-01    5.44       0.0  T
[...]
          :  PC potential                    false          :
          :  electronic temp.          300.0000000     K    :
          :  accuracy                    1.0000000          :
          :  -> integral cutoff          0.2500000E+02      :
          :  -> integral neglect         0.1000000E-07      :
          :  -> SCF convergence          0.1000000E-05 Eh   :
          :  -> wf. convergence          0.1000000E-03 e    :
          :  Broyden damping             0.4000000          :
          :  net charge                          2          :
          :  unpaired electrons                  0          :
          ...................................................

 iter      E             dE          RMSdq      gap      omega  full diag
   1    -63.9074680 -0.639075E+02  0.246E-05    6.48       0.0  T
   2    -63.9074680 -0.157030E-11  0.150E-05    6.48     935.4  T
   3    -63.9074680 -0.447642E-12  0.496E-06    6.48    2821.8  T

   *** convergence criteria satisfied after 3 iterations ***

         #    Occupation            Energy/Eh            Energy/eV
      -------------------------------------------------------------
         1        2.0000           -0.7119061             -19.3719
       ...           ...                  ...                  ...
        49        2.0000           -0.4313521             -11.7377
        50        2.0000           -0.4283716             -11.6566
        51        2.0000           -0.4257156             -11.5843
        52        2.0000           -0.4194951             -11.4150
        53        2.0000           -0.4183173             -11.3830
        54        2.0000           -0.4156829             -11.3113
        55        2.0000           -0.4146322             -11.2827 (HOMO)
        56                         -0.1766783              -4.8077 (LUMO)
        57                          0.0058873               0.1602
        58                          0.0163461               0.4448
        59                          0.0267589               0.7281
        60                          0.0542549               1.4764
       ...                                ...                  ...
       102                          1.1612662              31.5997
      -------------------------------------------------------------
                  HL-Gap            0.2379539 Eh            6.4751 eV
             Fermi-level           -0.2956552 Eh           -8.0452 eV

 SCC (total)                   0 d,  0 h,  0 min,  0.156 sec
 SCC setup                      ...        0 min,  0.003 sec (  1.786%)
 Dispersion                     ...        0 min,  0.002 sec (  1.528%)
 classical contributions        ...        0 min,  0.000 sec (  0.151%)
 integral evaluation            ...        0 min,  0.010 sec (  6.528%)
 iterations                     ...        0 min,  0.064 sec ( 41.013%)
 molecular gradient             ...        0 min,  0.069 sec ( 44.299%)
 printout                       ...        0 min,  0.007 sec (  4.674%)

         :::::::::::::::::::::::::::::::::::::::::::::::::::::
         ::                     SUMMARY                     ::
         :::::::::::::::::::::::::::::::::::::::::::::::::::::
         :: total energy             -63.229334166858 Eh    ::
         :: total w/o Gsasa/hb       -63.174741857038 Eh    ::
         :: gradient norm              0.000191577293 Eh/a0 ::
         :: HOMO-LUMO gap              6.475055639545 eV    ::
         ::.................................................::
         :: SCC energy               -63.907194462933 Eh    ::
         :: -> isotropic ES            0.484865961313 Eh    ::
         :: -> anisotropic ES         -0.013471448252 Eh    ::
         :: -> anisotropic XC          0.021133868153 Eh    ::
         :: -> dispersion             -0.032904662277 Eh    ::
         :: -> Gsolv                  -0.342352029367 Eh    ::
         ::    -> Gelec               -0.287759719546 Eh    ::
         ::    -> Gsasa               -0.000896501123 Eh    ::
         ::    -> Ghb                 -0.054776568395 Eh    ::
         ::    -> Gshift               0.001080759698 Eh    ::
         :: repulsion energy           0.677860296075 Eh    ::
         :: add. restraining           0.000000000000 Eh    ::
         :: total charge               2.000000000000 e     ::
         :::::::::::::::::::::::::::::::::::::::::::::::::::::

           -------------------------------------------------
          |                Property Printout                |
           -------------------------------------------------

    * Orbital Energies and Occupations

         #    Occupation            Energy/Eh            Energy/eV
      -------------------------------------------------------------
         1        2.0000           -0.7119061             -19.3719
       ...           ...                  ...                  ...
        43        2.0000           -0.4601128             -12.5203
        44        2.0000           -0.4545966             -12.3702
        45        2.0000           -0.4531878             -12.3319
        46        2.0000           -0.4466557             -12.1541
        47        2.0000           -0.4464776             -12.1493
        48        2.0000           -0.4353018             -11.8452
        49        2.0000           -0.4313521             -11.7377
        50        2.0000           -0.4283716             -11.6566
        51        2.0000           -0.4257156             -11.5843
        52        2.0000           -0.4194951             -11.4150
        53        2.0000           -0.4183173             -11.3830
        54        2.0000           -0.4156829             -11.3113
        55        2.0000           -0.4146322             -11.2827 (HOMO)
        56                         -0.1766783              -4.8077 (LUMO)
        57                          0.0058873               0.1602
        58                          0.0163461               0.4448
        59                          0.0267589               0.7281
        60                          0.0542549               1.4764
        61                          0.0697065               1.8968
        62                          0.1079920               2.9386
        63                          0.1101939               2.9985
        64                          0.1120556               3.0492
        65                          0.1169802               3.1832
        66                          0.1236337               3.3642
       ...                                ...                  ...
       102                          1.1612662              31.5997
      -------------------------------------------------------------
                  HL-Gap            0.2379539 Eh            6.4751 eV
             Fermi-level           -0.2956552 Eh           -8.0452 eV

     #   Z          covCN         q      C6AA      α(0)
     1   6 C        3.752    -0.109    22.636     6.785
     2   6 C        3.801    -0.059    21.631     6.622
     3   6 C        3.803    -0.063    21.700     6.632
     4   6 C        3.803    -0.067    21.781     6.644
     5   6 C        3.803    -0.065    21.741     6.638
     6   6 C        3.801    -0.073    21.904     6.663
     7   6 C        3.752    -0.130    23.056     6.847
     8   6 C        3.684     0.041    20.077     6.416
     9   6 C        3.799    -0.082    22.059     6.687
    10   6 C        3.753    -0.123    22.911     6.826
    11   1 H        0.925     0.032     2.555     2.500
    12   1 H        0.925     0.029     2.595     2.519
    13   1 H        0.925     0.031     2.575     2.509
    14   1 H        0.924     0.032     2.560     2.502
    15   1 H        0.924     0.030     2.589     2.516
    16   1 H        0.924     0.027     2.631     2.537
    17   1 H        0.924     0.024     2.670     2.555
    18   1 H        0.924     0.037     2.491     2.468
    19   1 H        0.924     0.032     2.562     2.503
    20   1 H        0.924     0.028     2.618     2.530
    21   1 H        0.924     0.021     2.717     2.578
    22   1 H        0.924     0.059     2.208     2.324
    23   1 H        0.924     0.041     2.442     2.444
    24   1 H        0.925     0.086     1.914     2.163
    25   1 H        0.925     0.032     2.565     2.505
    26   1 H        0.924     0.093     1.846     2.125
    27   1 H        0.924     0.076     2.022     2.224
    28   1 H        0.924     0.058     2.222     2.331
    29   1 H        0.924     0.050     2.319     2.381
    30   1 H        0.925     0.042     2.427     2.436
    31   1 H        0.925     0.042     2.417     2.431
    32   1 H        0.925     0.030     2.590     2.517
    33  48 Cd       4.111     0.455   190.649    26.503
    34   8 O        2.292    -0.546    23.838     6.594
    35   1 H        0.804     0.408     0.470     1.077
    36   1 H        0.805     0.390     0.503     1.114
    37   8 O        2.296    -0.523    23.332     6.524
    38   1 H        0.805     0.410     0.467     1.074
    39   1 H        0.805     0.374     0.535     1.149
    40   8 O        2.295    -0.553    23.997     6.616
    41   1 H        0.805     0.404     0.477     1.085
    42   1 H        0.805     0.403     0.479     1.087
    43   8 O        2.323    -0.365    20.130     6.060
    44   1 H        0.805     0.379     0.524     1.137
    45   1 H        0.925     0.043     2.408     2.427
    46   8 O        2.295    -0.549    23.908     6.604
    47   1 H        0.805     0.404     0.478     1.086
    48   1 H        0.805     0.404     0.476     1.084
    49   8 O        2.294    -0.545    23.827     6.593
    50   1 H        0.805     0.397     0.491     1.100
    51   1 H        0.804     0.406     0.474     1.082

 Mol. C6AA /au·bohr⁶  :      17526.480455
 Mol. C8AA /au·bohr⁸  :     438577.025466
 Mol. α(0) /au        :        200.351979


Wiberg/Mayer (AO) data.
largest (>0.10) Wiberg bond orders for each atom

 ---------------------------------------------------------------------------
     #   Z sym  total        # sym  WBO       # sym  WBO       # sym  WBO
 ---------------------------------------------------------------------------
     1   6 C    3.996 --     2 C    1.019    13 H    0.988    11 H    0.988
                            12 H    0.988
     2   6 C    3.997 --     1 C    1.019     3 C    1.007    14 H    0.979
                            15 H    0.979
     3   6 C    3.996 --     2 C    1.007     4 C    1.007    16 H    0.978
                            17 H    0.978
     4   6 C    3.996 --     3 C    1.007     5 C    1.006    18 H    0.977
                            19 H    0.977
     5   6 C    3.994 --     4 C    1.006     6 C    1.006    20 H    0.978
                            21 H    0.978
     6   6 C    3.994 --     7 C    1.019     5 C    1.006    23 H    0.977
                            22 H    0.974
     7   6 C    3.992 --     6 C    1.019    25 H    0.987    45 H    0.986
                            24 H    0.964
     8   6 C    3.933 --     9 C    1.006    43 O    0.962    27 H    0.959
                            26 H    0.956
     9   6 C    3.993 --    10 C    1.017     8 C    1.006    28 H    0.975
                            29 H    0.974
    10   6 C    3.993 --     9 C    1.017    32 H    0.987    31 H    0.987
                            30 H    0.987
    11   1 H    0.999 --     1 C    0.988
    12   1 H    0.999 --     1 C    0.988
    13   1 H    0.999 --     1 C    0.988
    14   1 H    0.999 --     2 C    0.979
    15   1 H    0.999 --     2 C    0.979
    16   1 H    0.999 --     3 C    0.978
    17   1 H    0.999 --     3 C    0.978
    18   1 H    0.999 --     4 C    0.977
    19   1 H    0.999 --     4 C    0.977
    20   1 H    0.999 --     5 C    0.978
    21   1 H    0.999 --     5 C    0.978
    22   1 H    0.996 --     6 C    0.974
    23   1 H    0.998 --     6 C    0.977
    24   1 H    0.992 --     7 C    0.964
    25   1 H    0.999 --     7 C    0.987
    26   1 H    0.991 --     8 C    0.956
    27   1 H    0.994 --     8 C    0.959
    28   1 H    0.997 --     9 C    0.975
    29   1 H    0.997 --     9 C    0.974
    30   1 H    0.998 --    10 C    0.987
    31   1 H    0.998 --    10 C    0.987
    32   1 H    0.999 --    10 C    0.987
    33  48 Cd   2.145 --    37 O    0.343    46 O    0.340    49 O    0.338
                            40 O    0.335    34 O    0.334    43 O    0.290
    34   8 O    2.103 --    36 H    0.837    35 H    0.823    33 Cd   0.334
    35   1 H    0.833 --    34 O    0.823
    36   1 H    0.848 --    34 O    0.837
    37   8 O    2.131 --    39 H    0.844    38 H    0.822    33 Cd   0.343
    38   1 H    0.832 --    37 O    0.822
    39   1 H    0.860 --    37 O    0.844
    40   8 O    2.097 --    42 H    0.828    41 H    0.825    33 Cd   0.335
    41   1 H    0.836 --    40 O    0.825
    42   1 H    0.837 --    40 O    0.828
    43   8 O    2.233 --     8 C    0.962    44 H    0.831    33 Cd   0.290
    44   1 H    0.856 --    43 O    0.831
    45   1 H    0.998 --     7 C    0.986
    46   8 O    2.105 --    47 H    0.826    48 H    0.826    33 Cd   0.340
    47   1 H    0.837 --    46 O    0.826
    48   1 H    0.836 --    46 O    0.826
    49   8 O    2.107 --    50 H    0.832    51 H    0.825    33 Cd   0.338
    50   1 H    0.843 --    49 O    0.832
    51   1 H    0.835 --    49 O    0.825
 ---------------------------------------------------------------------------

Topologies differ in total number of bonds
Writing topology from bond orders to xtbtopo.mol

molecular dipole:
                 x           y           z       tot (Debye)
 q only:       17.517      10.003       3.967
   full:       17.317       9.912       3.877      51.664
molecular quadrupole (traceless):
                xx          xy          yy          xz          yz          zz
 q only:      116.978     126.391     -26.986      50.692      27.793     -89.992
  q+dip:      118.326     128.187     -27.418      52.357      26.026     -90.908
   full:      119.041     127.756     -27.284      51.738      26.369     -91.757

           -------------------------------------------------
          |                Geometry Summary                 |
           -------------------------------------------------

      molecular mass/u    :      362.7853318
   center of mass at/Å    :        2.5793259       1.3552703       0.6121761
  moments of inertia/u·Å² :        0.1239285E+04   0.5085741E+04   0.5905489E+04
rotational constants/cm⁻¹ :        0.1360271E-01   0.3314686E-02   0.2854570E-02

 * 49 selected distances

     #   Z          #   Z                                           value/Å
     1   6 C        2   6 C                                       1.5240572
     2   6 C        3   6 C                                       1.5271972
     3   6 C        4   6 C                                       1.5265307
     4   6 C        5   6 C                                       1.5275967
     5   6 C        6   6 C                                       1.5277218
     6   6 C        7   6 C                                       1.5257594
     8   6 C        9   6 C                                       1.5263663
     9   6 C       10   6 C                                       1.5244486
     1   6 C       11   1 H                                       1.0881001
     1   6 C       12   1 H                                       1.0877071
     1   6 C       13   1 H                                       1.0882468
     2   6 C       14   1 H                                       1.0924133
     2   6 C       15   1 H                                       1.0926422
     3   6 C       16   1 H                                       1.0930237
     3   6 C       17   1 H                                       1.0933182
     4   6 C       18   1 H                                       1.0923748
     4   6 C       19   1 H                                       1.0929018
     5   6 C       20   1 H                                       1.0929467
     5   6 C       21   1 H                                       1.0935083
     6   6 C       22   1 H                                       1.0911101
     6   6 C       23   1 H                                       1.0918322
     7   6 C       24   1 H                                       1.0864358
     7   6 C       25   1 H                                       1.0882027
     8   6 C       26   1 H                                       1.0905368
     8   6 C       27   1 H                                       1.0951249
     9   6 C       28   1 H                                       1.0913006
     9   6 C       29   1 H                                       1.0921835
    10   6 C       30   1 H                                       1.0875811
    10   6 C       31   1 H                                       1.0873977
    10   6 C       32   1 H                                       1.0872400
    33  48 Cd      34   8 O                                       2.1576683
    34   8 O       35   1 H                                       0.9683438
    34   8 O       36   1 H                                       0.9670117 (min)
Note: The following floating-point exceptions are signalling: IEEE_UNDERFLOW_FLAG IEEE_DENORMAL
normal termination of xtb
    33  48 Cd      37   8 O                                       2.1480251
    37   8 O       38   1 H                                       0.9697430
    37   8 O       39   1 H                                       0.9676185
    33  48 Cd      40   8 O                                       2.1509806
    40   8 O       41   1 H                                       0.9671299
    40   8 O       42   1 H                                       0.9681665
     8   6 C       43   8 O                                       1.4300688
    33  48 Cd      43   8 O                                       2.1809762 (max)
    43   8 O       44   1 H                                       0.9708618
     7   6 C       45   1 H                                       1.0874586
    33  48 Cd      46   8 O                                       2.1499604
    46   8 O       47   1 H                                       0.9678455
    46   8 O       48   1 H                                       0.9683866
    33  48 Cd      49   8 O                                       2.1520145
    49   8 O       50   1 H                                       0.9682622
    49   8 O       51   1 H                                       0.9682554

 * 5 distinct bonds (by element types)

   Z      Z             #   av. dist./Å        max./Å        min./Å
   1 H    6 C          23     1.0905907     1.0951249     1.0864358
   6 C    6 C           8     1.5262097     1.5277218     1.5240572
   1 H    8 O          11     0.9683295     0.9708618     0.9670117
   6 C    8 O           1     1.4300688     1.4300688     1.4300688
   8 O   48 Cd          6     2.1566042     2.1809762     2.1480251


optimized geometry written to: xtbopt.xyz


           -------------------------------------------------
          | TOTAL ENERGY              -63.229334166858 Eh   |
          | GRADIENT NORM               0.000191577293 Eh/α |
          | HOMO-LUMO GAP               6.475055639545 eV   |
           -------------------------------------------------

------------------------------------------------------------------------
 * finished run on 2026/05/26 at 02:11:17.672     
------------------------------------------------------------------------
 total:
 * wall-time:     0 d,  0 h,  1 min,  1.467 sec
 *  cpu-time:     0 d,  0 h,  1 min, 40.560 sec
 * ratio c/w:     1.636 speedup
 SCF:
 * wall-time:     0 d,  0 h,  0 min,  0.415 sec
 *  cpu-time:     0 d,  0 h,  0 min,  0.782 sec
 * ratio c/w:     1.886 speedup
 ANC optimizer:
 * wall-time:     0 d,  0 h,  1 min,  0.995 sec
 *  cpu-time:     0 d,  0 h,  1 min, 39.668 sec
 * ratio c/w:     1.634 speedup

