      -----------------------------------------------------------      
     |                   =====================                   |     
     |                           x T B                           |     
     |                   =====================                   |     
     |                         S. Grimme                         |     
     |          Mulliken Center for Theoretical Chemistry        |     
     |                    University of Bonn                     |     
      -----------------------------------------------------------      

   * xtb version 6.7.1 (edcfbbe) compiled by 'conda@c0858423619e' on 2025-09-04

   xtb is free software: you can redistribute it and/or modify it under
   the terms of the GNU Lesser General Public License as published by
   the Free Software Foundation, either version 3 of the License, or
   (at your option) any later version.
   
   xtb is distributed in the hope that it will be useful,
   but WITHOUT ANY WARRANTY; without even the implied warranty of
   MERCHANTABILITY or FITNESS FOR A PARTICULAR PURPOSE.  See the
   GNU Lesser General Public License for more details.
   
   Cite this work as:
   * C. Bannwarth, E. Caldeweyher, S. Ehlert, A. Hansen, P. Pracht,
     J. Seibert, S. Spicher, S. Grimme, WIREs Comput. Mol. Sci., 2020, 11,
     e01493. DOI: 10.1002/wcms.1493
   
   for GFN2-xTB:
   * C. Bannwarth, S. Ehlert and S. Grimme., J. Chem. Theory Comput., 2019,
     15, 1652-1671. DOI: 10.1021/acs.jctc.8b01176
   for GFN1-xTB:
   * S. Grimme, C. Bannwarth, P. Shushkov, J. Chem. Theory Comput., 2017,
     13, 1989-2009. DOI: 10.1021/acs.jctc.7b00118
   for GFN0-xTB:
   * P. Pracht, E. Caldeweyher, S. Ehlert, S. Grimme, ChemRxiv, 2019, preprint.
     DOI: 10.26434/chemrxiv.8326202.v1
   for GFN-FF:
   * S. Spicher and S. Grimme, Angew. Chem. Int. Ed., 2020, 59, 15665-15673.
     DOI: 10.1002/anie.202004239
   
   for ALPB and GBSA implicit solvation:
   * S. Ehlert, M. Stahn, S. Spicher, S. Grimme, J. Chem. Theory Comput.,
     2021, 17, 4250-4261. DOI: 10.1021/acs.jctc.1c00471
   
   for ddCOSMO and CPCM-X implicit solvation:
   * M. Stahn, S. Ehlert, S. Grimme, J. Phys. Chem. A,
     2023, XX, XXXX-XXXX. DOI: 10.1021/acs.jpca.3c04382
   
   for DFT-D4:
   * E. Caldeweyher, C. Bannwarth and S. Grimme, J. Chem. Phys., 2017,
     147, 034112. DOI: 10.1063/1.4993215
   * E. Caldeweyher, S. Ehlert, A. Hansen, H. Neugebauer, S. Spicher,
     C. Bannwarth and S. Grimme, J. Chem. Phys., 2019, 150, 154122.
     DOI: 10.1063/1.5090222
   * E. Caldeweyher, J.-M. Mewes, S. Ehlert and S. Grimme, Phys. Chem. Chem. Phys.
     2020, 22, 8499-8512. DOI: 10.1039/D0CP00502A
   
   for sTDA-xTB:
   * S. Grimme and C. Bannwarth, J. Chem. Phys., 2016, 145, 054103.
     DOI: 10.1063/1.4959605
   
   in the mass-spec context:
   * V. Asgeirsson, C. Bauer and S. Grimme, Chem. Sci., 2017, 8, 4879.
     DOI: 10.1039/c7sc00601b
   * J. Koopman and S. Grimme, ACS Omega 2019, 4, 12, 15120-15133.
     DOI: 10.1021/acsomega.9b02011
   
   for metadynamics refer to:
   * S. Grimme, J. Chem. Theory Comput., 2019, 155, 2847-2862
     DOI: 10.1021/acs.jctc.9b00143
   
   for SPH calculations refer to:
   * S. Spicher and S. Grimme, J. Chem. Theory Comput., 2021, 17, 1701-1714
     DOI: 10.1021/acs.jctc.0c01306
   
   for ONIOM refer to:
   * C. Plett, A. Katbashev, S. Ehlert, S. Grimme, M. Bursch,
     Phys. Chem. Chem. Phys., 2023, 25, 17860-17868. DOI: 10.1039/D3CP02178E
   
   for DIPRO refer to:
   * J. Kohn, N. Gildemeister, S. Grimme, D. Fazzi, A. Hansen,
     J. Chem. Phys., 2023, just accepted.
   
   for PTB refer to:
   * S. Grimme, M. Mueller, A. Hansen, J. Chem. Phys., 2023, 158, 124111.
     DOI: 10.1063/5.0137838
   
   with help from (in alphabetical order)
   P. Atkinson, C. Bannwarth, F. Bohle, G. Brandenburg, E. Caldeweyher
   M. Checinski, S. Dohm, S. Ehlert, S. Ehrlich, I. Gerasimov, C. Hölzer
   A. Katbashev, J. Kohn, J. Koopman, C. Lavigne, S. Lehtola, F. März, M. Müller,
   F. Musil, H. Neugebauer, J. Pisarek, C. Plett, P. Pracht, F. Pultar,
   J. Seibert, P. Shushkov, S. Spicher, M. Stahn, M. Steiner, T. Strunk,
   J. Stückrath, T. Rose, and J. Unsleber
   
 * started run on 2026/05/26 at 02:11:17.749     
   ID    Z sym.   atoms
    1    6 C      1-10
    2    1 H      11-32, 35, 36, 38, 39, 41, 42, 44, 45, 47, 48, 50, 51
    3   48 Cd     33
    4    8 O      34, 37, 40, 43, 46, 49

           -------------------------------------------------
          |                Calculation Setup                |
           -------------------------------------------------

          program call               : /content/xtb_env/bin/xtb input.xyz --gfn 2 --opt tight --alpb water --chrg 2 --uhf 0
          hostname                   : 01035569fb61
          coordinate file            : input.xyz
          omp threads                :                     2


molecular fragmentation (1/2 indicates fragments):
111111111111111111111111111111111112111111111222222
# atoms in fragment 1/2:    44     7
 fragment masses (1/2) :      325.75       37.04
CMA distance (Bohr)    :   5.299
constraining FC (au)   :  0.0500

           -------------------------------------------------
          |                 G F N 2 - x T B                 |
           -------------------------------------------------

        Reference                      10.1021/acs.jctc.8b01176
      * Hamiltonian:
        H0-scaling (s, p, d)           1.850000    2.230000    2.230000
        zeta-weighting                 0.500000
      * Dispersion:
        s8                             2.700000
        a1                             0.520000
        a2                             5.000000
        s9                             5.000000
      * Repulsion:
        kExp                           1.500000    1.000000
        rExp                           1.000000
      * Coulomb:
        alpha                          2.000000
        third order                    shell-resolved
        anisotropic                    true
        a3                             3.000000
        a5                             4.000000
        cn-shift                       1.200000
        cn-exp                         4.000000
        max-rad                        5.000000

      * Solvation model:               ALPB
        Solvent                        water
        Parameter file                 internal GFN2-xTB/ALPB
        Dielectric constant                8.0200E+01
        Reference state                gsolv [1 M gas/solution]
        Free energy shift                  1.0808E-03 Eh       6.7819E-01 kcal/mol
        Temperature                        2.9815E+02 K
        Density                            1.0000E+00 kg/L
        Solvent mass                       1.8000E+01 g/mol
        Interaction kernel             P16
        Born radius scaling (c1)           1.4744E+00
        Born radii integrator          GBOBC
        Born offset                        0.0000E+00 a0       0.0000E+00 AA
        H-bond correction              true
        Ion screening                  false
        Surface tension                    1.0000E-05 Eh       1.5569E+01 dyn/cm
        Grid points                               230 per atom

          ...................................................
          :                      SETUP                      :
          :.................................................:
          :  # basis functions                 102          :
          :  # atomic orbitals                 102          :
          :  # shells                           68          :
          :  # electrons                       110          :
          :  max. iterations                   250          :
          :  Hamiltonian                  GFN2-xTB          :
          :  restarted?                      false          :
          :  GBSA solvation                   true          :
          :  PC potential                    false          :
          :  electronic temp.          300.0000000     K    :
          :  accuracy                    1.0000000          :
          :  -> integral cutoff          0.2500000E+02      :
          :  -> integral neglect         0.1000000E-07      :
          :  -> SCF convergence          0.1000000E-05 Eh   :
          :  -> wf. convergence          0.1000000E-03 e    :
          :  Broyden damping             0.4000000          :
          :  net charge                          2          :
          :  unpaired electrons                  0          :
          ...................................................

 iter      E             dE          RMSdq      gap      omega  full diag
   1    -59.6300975 -0.596301E+02  0.706E+00    1.33       0.0  T
   2    -60.1382205 -0.508123E+00  0.521E+00    0.20       1.0  T
   3    -60.4613522 -0.323132E+00  0.355E+00    1.32       1.0  T
   4    -60.7828252 -0.321473E+00  0.240E+00    0.83       1.0  T
   5    -60.7943179 -0.114927E-01  0.202E+00    0.04       1.0  T
   6    -60.8298214 -0.355036E-01  0.118E+00    0.58       1.0  T
   7    -60.8711306 -0.413092E-01  0.669E-01    0.36       1.0  T
   8    -60.8775339 -0.640330E-02  0.497E-01    0.29       1.0  T
   9    -60.8785796 -0.104566E-02  0.384E-01    0.23       1.0  T
  10    -60.8815546 -0.297499E-02  0.190E-01    0.16       1.0  T
  11    -60.8820077 -0.453094E-03  0.100E-01    0.14       1.0  T
  12    -60.8821182 -0.110532E-03  0.366E-02    0.12       1.0  T
  13    -60.8821812 -0.630452E-04  0.101E-02    0.12       1.4  T
  14    -60.8821808  0.432041E-06  0.109E-02    0.12       1.3  T
  15    -60.8821833 -0.254415E-05  0.361E-03    0.12       3.9  T
  16    -60.8821837 -0.340955E-06  0.643E-04    0.12      21.8  T
  17    -60.8821837 -0.780105E-10  0.503E-04    0.12      27.8  T

   *** convergence criteria satisfied after 17 iterations ***

         #    Occupation            Energy/Eh            Energy/eV
      -------------------------------------------------------------
         1        2.0000           -1.0292947             -28.0085
       ...           ...                  ...                  ...
        49        2.0000           -0.3426284              -9.3234
        50        2.0000           -0.3250185              -8.8442
        51        2.0000           -0.3114156              -8.4740
        52        2.0000           -0.2886294              -7.8540
        53        2.0000           -0.2681559              -7.2969
        54        2.0000           -0.2472313              -6.7275
        55        1.8245           -0.2159326              -5.8758 (HOMO)
        56        0.1755           -0.2114842              -5.7548 (LUMO)
        57        0.0000           -0.2019994              -5.4967
        58                         -0.1476486              -4.0177
        59                         -0.1045177              -2.8441
        60                         -0.1018938              -2.7727
       ...                                ...                  ...
       102                         34.9440610             950.8763
      -------------------------------------------------------------
                  HL-Gap            0.0044484 Eh            0.1210 eV
             Fermi-level           -0.2137085 Eh           -5.8153 eV

 SCC (total)                   0 d,  0 h,  0 min,  0.384 sec
 SCC setup                      ...        0 min,  0.007 sec (  1.731%)
 Dispersion                     ...        0 min,  0.001 sec (  0.214%)
 classical contributions        ...        0 min,  0.000 sec (  0.058%)
 integral evaluation            ...        0 min,  0.012 sec (  3.115%)
 iterations                     ...        0 min,  0.306 sec ( 79.877%)
 molecular gradient             ...        0 min,  0.053 sec ( 13.872%)
 printout                       ...        0 min,  0.004 sec (  1.124%)

         :::::::::::::::::::::::::::::::::::::::::::::::::::::
         ::                     SUMMARY                     ::
         :::::::::::::::::::::::::::::::::::::::::::::::::::::
         :: total energy             -41.845182011745 Eh    ::
         :: total w/o Gsasa/hb       -41.786762084866 Eh    ::
         :: gradient norm             34.417208386502 Eh/a0 ::
         :: HOMO-LUMO gap              0.121047786492 eV    ::
         ::.................................................::
         :: SCC energy               -60.882414530525 Eh    ::
         :: -> isotropic ES            0.832002248912 Eh    ::
         :: -> anisotropic ES          0.014789031364 Eh    ::
         :: -> anisotropic XC          0.052297674873 Eh    ::
         :: -> dispersion             -0.039626353672 Eh    ::
         :: -> Gsolv                  -0.521358838072 Eh    ::
         ::    -> Gelec               -0.462938911194 Eh    ::
         ::    -> Gsasa               -0.001410632007 Eh    ::
         ::    -> Ghb                 -0.058090054569 Eh    ::
         ::    -> Gshift               0.001080759698 Eh    ::
         :: repulsion energy          19.037232518780 Eh    ::
         :: add. restraining           0.000000000000 Eh    ::
         :: total charge               2.000000000000 e     ::
         :::::::::::::::::::::::::::::::::::::::::::::::::::::

      ----------------------------------------------------------- 
     |                   =====================                   |
     |                        A N C O P T                        |
     |                   =====================                   |
     |               Approximate Normal Coordinate               |
     |                Rational Function Optimizer                |
      ----------------------------------------------------------- 
      ----------------------------------------------------------- 
     |                   =====================                   |
     |                        A N C O P T                        |
     |                   =====================                   |
     |               Approximate Normal Coordinate               |
     |                Rational Function Optimizer                |
      ----------------------------------------------------------- 

          ...................................................
          :                      SETUP                      :
          :.................................................:
          :   optimization level             tight          :
          :   max. optcycles                   255          :
          :   ANC micro-cycles                  20          :
          :   degrees of freedom               147          :
          :.................................................:
          :   RF solver                   davidson          :
          :   write xtbopt.log                true          :
          :   linear?                        false          :
          :   energy convergence         0.1000000E-05 Eh   :
          :   grad. convergence          0.8000000E-03 Eh/α :
          :   maxmium RF displ.          1.0000000          :
          :   Hlow (freq-cutoff)         0.1000000E-01      :
          :   Hmax (freq-cutoff)         5.0000000          :
          :   S6 in model hess.         20.0000000          :
          ...................................................

generating ANC from exact Hessian ...
Using Lindh-Hessian (1995)
 Shifting diagonal of input Hessian by    9.9095590199198679E-003
 Lowest  eigenvalues of input Hessian
    0.000000    0.000000    0.000000    0.000000    0.000000    0.000000
    0.010000    0.010042    0.010536    0.010774    0.011129    0.012226
    0.012364    0.012704    0.013341    0.013823    0.014399    0.014569
 Highest eigenvalues
    9.171889   14.647160   17.970532   18.849789   22.375952   52.248092


........................................................................
.............................. CYCLE    1 ..............................
........................................................................

 iter      E             dE          RMSdq      gap      omega  full diag
   1    -60.8821837 -0.608822E+02  0.138E-04    0.12       0.0  T
   2    -60.8821837  0.474793E-08  0.312E-04    0.12      44.9  T
   3    -60.8821837 -0.484329E-08  0.116E-04    0.12     121.0  T
     SCC iter.                  ...        0 min,  0.063 sec
     gradient                   ...        0 min,  0.107 sec
 * total energy  :   -41.8451820 Eh     change       -0.5757400E-08 Eh
   gradient norm :    34.4171661 Eh/α   predicted     0.0000000E+00 (-100.00%)
   displ. norm   :     0.9316775 α      lambda       -0.3205645E+02
   maximum displ.:     0.4784950 α      in ANC's #143, #140, #141, ...

........................................................................
.............................. CYCLE    2 ..............................
........................................................................

 iter      E             dE          RMSdq      gap      omega  full diag
   1    -60.8791242 -0.608791E+02  0.346E+00    0.74       0.0  T
   2    -60.8756705  0.345364E-02  0.308E+00    0.53       1.0  T
   3    -61.0731292 -0.197459E+00  0.166E+00    0.22       1.0  T
   4    -61.1340422 -0.609129E-01  0.133E+00    0.18       1.0  T
   5    -61.1724566 -0.384144E-01  0.336E-01    0.26       1.0  T
   6    -61.1657945  0.666210E-02  0.464E-01    0.15       1.0  T
   7    -61.1704374 -0.464292E-02  0.313E-01    0.26       1.0  T
   8    -61.1730847 -0.264724E-02  0.223E-01    0.23       1.0  T
   9    -61.1741650 -0.108034E-02  0.122E-01    0.22       1.0  T
  10    -61.1746253 -0.460299E-03  0.335E-02    0.21       1.0  T
  11    -61.1746601 -0.348113E-04  0.149E-02    0.21       1.0  T
  12    -61.1746637 -0.360526E-05  0.106E-02    0.20       1.3  T
  13    -61.1746665 -0.275893E-05  0.382E-03    0.20       3.7  T
  14    -61.1746667 -0.232285E-06  0.301E-03    0.20       4.7  T
  15    -61.1746670 -0.277882E-06  0.981E-04    0.20      14.3  T
  16    -61.1746670 -0.157741E-07  0.614E-04    0.20      22.8  T
     SCC iter.                  ...        0 min,  0.173 sec
     gradient                   ...        0 min,  0.060 sec
 * total energy  :   -55.6402201 Eh     change       -0.1379504E+02 Eh
   gradient norm :     9.8067058 Eh/α   predicted    -0.2994569E+02 ( 117.08%)
   displ. norm   :     0.8046971 α      lambda       -0.7802216E+01
   maximum displ.:     0.4980395 α      in ANC's #146, #141, #139, ...

........................................................................
.............................. CYCLE    3 ..............................
........................................................................

 iter      E             dE          RMSdq      gap      omega  full diag
   1    -61.1290736 -0.611291E+02  0.165E+00    0.22       0.0  T
   2    -60.9117001  0.217374E+00  0.287E+00    0.90       1.0  T
   3    -61.0974793 -0.185779E+00  0.212E+00    0.29       1.0  T
   4    -61.1180243 -0.205450E-01  0.196E+00    0.23       1.0  T
   5    -61.2190313 -0.101007E+00  0.657E-01    0.10       1.0  T
   6    -61.1661496  0.528817E-01  0.143E+00    0.25       1.0  T
   7    -61.1502621  0.158875E-01  0.154E+00    0.26       1.0  T
   8    -61.1694250 -0.191629E-01  0.128E+00    0.19       1.0  T
   9    -61.1805973 -0.111723E-01  0.114E+00    0.19       1.0  T
  10    -61.2282839 -0.476866E-01  0.497E-01    0.13       1.0  T
  11    -61.1951036  0.331803E-01  0.999E-01    0.19       1.0  T
  12    -61.2208940 -0.257905E-01  0.549E-01    0.14       1.0  T
  13    -61.2310995 -0.102055E-01  0.203E-01    0.10       1.0  T
  14    -61.2310855  0.139750E-04  0.193E-01    0.10       1.0  T
  15    -61.2325229 -0.143739E-02  0.380E-02    0.11       1.0  T
  16    -61.2324916  0.313024E-04  0.427E-02    0.11       1.0  T
  17    -61.2325473 -0.557328E-04  0.170E-02    0.11       1.0  T
  18    -61.2325511 -0.373190E-05  0.115E-02    0.11       1.2  T
  19    -61.2325539 -0.286797E-05  0.572E-03    0.11       2.4  T
  20    -61.2325542 -0.297501E-06  0.340E-03    0.11       4.1  T
  21    -61.2325545 -0.270272E-06  0.865E-04    0.11      16.2  T
  22    -61.2325545 -0.344215E-09  0.891E-04    0.11      15.7  T
     SCC iter.                  ...        0 min,  0.355 sec
     gradient                   ...        0 min,  0.060 sec
 * total energy  :   -57.8244700 Eh     change       -0.2184250E+01 Eh
   gradient norm :           NaN Eh/α   predicted    -0.6427222E+01 ( 194.25%)
   displ. norm   :     0.8046971 α      lambda        0.0000000E+00
   maximum displ.:     0.4980395 α      in ANC's #146, #141, #139, ...

........................................................................
.............................. CYCLE    4 ..............................
........................................................................

 iter      E             dE          RMSdq      gap      omega  full diag
   1    -61.1899404 -0.611899E+02  0.228E+00    0.65       0.0  T
   2    -60.3362388  0.853702E+00  0.388E+00    0.50       1.0  T
   3    -61.3073534 -0.971115E+00  0.556E-01    0.02       1.0  T
   4    -61.3072403  0.113097E-03  0.386E-01    0.02       1.0  T
   5    -61.2215212  0.857190E-01  0.127E+00    0.09       1.0  T
   6    -61.2609340 -0.394128E-01  0.988E-01    0.09       1.0  T
   7    -61.1972231  0.637109E-01  0.146E+00    0.10       1.0  T
   8    -61.2828174 -0.855943E-01  0.719E-01    0.04       1.0  T
   9    -61.3091154 -0.262980E-01  0.103E-01    0.01       1.0  T
  10    -61.3095300 -0.414657E-03  0.341E-02    0.01       1.0  T
  11    -61.3090396  0.490423E-03  0.104E-01    0.01       1.0  T
  12    -61.3095709 -0.531268E-03  0.690E-03    0.02       2.0  T
  13    -61.3095574  0.134671E-04  0.178E-02    0.01       1.0  T
  14    -61.3095691 -0.116848E-04  0.816E-03    0.02       1.7  T
  15    -61.3095711 -0.206238E-05  0.470E-03    0.02       3.0  T
  16    -61.3095722 -0.103545E-05  0.155E-03    0.02       9.0  T
  17    -61.3095723 -0.107349E-06  0.315E-04    0.02      44.5  T
  18    -61.3095723 -0.931692E-09  0.273E-04    0.02      51.3  T
     SCC iter.                  ...        0 min,  0.159 sec
     gradient                   ...        0 min,  0.070 sec
 * total energy  :   -56.5957215 Eh     change        0.1228749E+01 Eh
   gradient norm :    13.1584006 Eh/α   predicted               NaN (    NaN%)
   displ. norm   :     0.6996668 α      lambda       -0.7846287E+01
   maximum displ.:     0.4241387 α      in ANC's #139, #146, #143, ...

........................................................................
.............................. CYCLE    5 ..............................
........................................................................

 iter      E             dE          RMSdq      gap      omega  full diag
   1    -61.0851052 -0.610851E+02  0.156E+00    0.15       0.0  T
   2    -60.3439311  0.741174E+00  0.364E+00    0.74       1.0  T
   3    -60.9482981 -0.604367E+00  0.234E+00    0.46       1.0  T
   4    -61.0304110 -0.821129E-01  0.189E+00    0.15       1.0  T
   5    -61.0354189 -0.500786E-02  0.199E+00    0.79       1.0  T
   6    -61.0456870 -0.102682E-01  0.196E+00    0.73       1.0  T
   7    -61.0659233 -0.202363E-01  0.176E+00    0.44       1.0  T
   8    -61.1232977 -0.573743E-01  0.128E+00    0.13       1.0  T
   9    -61.1728545 -0.495568E-01  0.712E-01    0.04       1.0  T
  10    -61.1179708  0.548837E-01  0.132E+00    0.14       1.0  T
  11    -61.1900148 -0.720440E-01  0.439E-01    0.05       1.0  T
  12    -61.1943764 -0.436151E-02  0.321E-01    0.04       1.0  T
  13    -61.1961249 -0.174850E-02  0.256E-01    0.03       1.0  T
  14    -61.1963254 -0.200530E-03  0.248E-01    0.03       1.0  T
  15    -61.1991923 -0.286690E-02  0.724E-02    0.03       1.0  T
  16    -61.1988838  0.308506E-03  0.107E-01    0.03       1.0  T
  17    -61.1993629 -0.479101E-03  0.429E-02    0.03       1.0  T
  18    -61.1994526 -0.896683E-04  0.714E-03    0.03       2.0  T
  19    -61.1994525  0.258835E-07  0.718E-03    0.03       1.9  T
  20    -61.1994551 -0.254372E-05  0.967E-04    0.03      14.5  T
  21    -61.1994551 -0.459048E-07  0.155E-04    0.03      90.1  T
  22    -61.1994551  0.553599E-08  0.365E-04    0.03      38.4  T
     SCC iter.                  ...        0 min,  0.186 sec
     gradient                   ...        0 min,  0.095 sec
 * total energy  :   -59.2495412 Eh     change       -0.2653820E+01 Eh
   gradient norm :     2.8868088 Eh/α   predicted    -0.5843655E+01 ( 120.20%)
   displ. norm   :     0.6641430 α      lambda       -0.1508460E+01
   maximum displ.:     0.2251557 α      in ANC's #73, #59, #143, ...

........................................................................
.............................. CYCLE    6 ..............................
........................................................................

 iter      E             dE          RMSdq      gap      omega  full diag
   1    -61.2486356 -0.612486E+02  0.209E+00    0.17       0.0  T
   2    -60.8084748  0.440161E+00  0.371E+00    0.08       1.0  T
   3    -61.3558724 -0.547398E+00  0.197E+00    0.90       1.0  T
   4    -61.3955568 -0.396844E-01  0.171E+00    0.48       1.0  T
   5    -61.4750779 -0.795211E-01  0.925E-01    0.09       1.0  T
   6    -61.1885273  0.286551E+00  0.245E+00    0.40       1.0  T
   7    -61.4603359 -0.271809E+00  0.955E-01    0.11       1.0  T
   8    -61.4351102  0.252257E-01  0.121E+00    0.17       1.0  T
   9    -61.4945480 -0.594377E-01  0.395E-01    0.06       1.0  T
  10    -61.5009396 -0.639163E-02  0.164E-01    0.05       1.0  T
  11    -61.5006774  0.262195E-03  0.179E-01    0.05       1.0  T
  12    -61.5003191  0.358245E-03  0.198E-01    0.03       1.0  T
  13    -61.5022429 -0.192373E-02  0.798E-03    0.04       1.8  T
  14    -61.5020952  0.147656E-03  0.554E-02    0.04       1.0  T
  15    -61.5022451 -0.149831E-03  0.356E-03    0.04       3.9  T
  16    -61.5022457 -0.637767E-06  0.559E-04    0.04      25.0  T
  17    -61.5022430  0.270102E-05  0.743E-03    0.04       1.9  T
  18    -61.5022453 -0.230890E-05  0.284E-03    0.04       4.9  T
  19    -61.5022457 -0.351606E-06  0.963E-04    0.04      14.5  T
     SCC iter.                  ...        0 min,  0.273 sec
     gradient                   ...        0 min,  0.088 sec
 * total energy  :   -60.1692174 Eh     change       -0.9196762E+00 Eh
   gradient norm :     1.2556380 Eh/α   predicted    -0.1086911E+01 (  18.18%)
   displ. norm   :     0.6749103 α      lambda       -0.6486900E+00
   maximum displ.:     0.2119986 α      in ANC's #108, #37, #40, ...

........................................................................
.............................. CYCLE    7 ..............................
........................................................................

 iter      E             dE          RMSdq      gap      omega  full diag
   1    -61.4544332 -0.614544E+02  0.230E+00    0.18       0.0  T
   2    -60.1509549  0.130348E+01  0.513E+00    0.33       1.0  T
   3    -61.6328981 -0.148194E+01  0.183E+00    0.58       1.0  T
   4    -61.6658149 -0.329168E-01  0.152E+00    0.28       1.0  T
   5    -61.7006211 -0.348063E-01  0.116E+00    0.13       1.0  T
   6    -61.4452206  0.255401E+00  0.245E+00    0.38       1.0  T
   7    -61.5780817 -0.132861E+00  0.185E+00    0.11       1.0  T
   8    -61.7437680 -0.165686E+00  0.485E-01    0.06       1.0  T
   9    -61.7320972  0.116708E-01  0.688E-01    0.08       1.0  T
  10    -61.7467537 -0.146565E-01  0.390E-01    0.05       1.0  T
  11    -61.7539536 -0.719987E-02  0.988E-03    0.03       1.4  T
  12    -61.7538630  0.905918E-04  0.434E-02    0.03       1.0  T
  13    -61.7539308 -0.677924E-04  0.220E-02    0.03       1.0  T
  14    -61.7539374 -0.663454E-05  0.187E-02    0.03       1.0  T
  15    -61.7539527 -0.152849E-04  0.558E-03    0.03       2.5  T
  16    -61.7539535 -0.853733E-06  0.352E-03    0.03       4.0  T
  17    -61.7539535  0.607284E-07  0.363E-03    0.03       3.9  T
  18    -61.7539539 -0.423276E-06  0.210E-03    0.03       6.7  T
  19    -61.7539541 -0.180014E-06  0.820E-04    0.03      17.1  T
  20    -61.7539541 -0.191187E-07  0.526E-04    0.03      26.6  T
     SCC iter.                  ...        0 min,  0.260 sec
     gradient                   ...        0 min,  0.064 sec
 * total energy  :   -60.7008762 Eh     change       -0.5316588E+00 Eh
   gradient norm :     0.8863814 Eh/α   predicted    -0.4720862E+00 ( -11.21%)
   displ. norm   :     0.7373531 α      lambda       -0.5020361E+00
   maximum displ.:     0.2735943 α      in ANC's #37, #108, #40, ...

........................................................................
.............................. CYCLE    8 ..............................
........................................................................

 iter      E             dE          RMSdq      gap      omega  full diag
   1    -61.7409712 -0.617410E+02  0.214E+00    0.13       0.0  T
   2    -61.3924505  0.348521E+00  0.357E+00    0.11       1.0  T
   3    -61.8455584 -0.453108E+00  0.183E+00    0.92       1.0  T
   4    -61.9172717 -0.717132E-01  0.143E+00    0.28       1.0  T
   5    -61.9254734 -0.820177E-02  0.132E+00    0.21       1.0  T
   6    -61.7140086  0.211465E+00  0.241E+00    0.30       1.0  T
   7    -61.8496144 -0.135606E+00  0.170E+00    0.09       1.0  T
   8    -61.9393006 -0.896862E-01  0.112E+00    0.16       1.0  T
   9    -61.9457559 -0.645529E-02  0.106E+00    0.14       1.0  T
  10    -61.9751163 -0.293604E-01  0.705E-01    0.09       1.0  T
  11    -61.9979765 -0.228602E-01  0.185E-02    0.03       1.0  T
  12    -61.9978348  0.141705E-03  0.524E-02    0.03       1.0  T
  13    -61.9979123 -0.775231E-04  0.354E-02    0.03       1.0  T
  14    -61.9979770 -0.646666E-04  0.164E-03    0.03       8.5  T
  15    -61.9979769  0.357978E-08  0.133E-03    0.03      10.6  T
  16    -61.9979767  0.272775E-06  0.273E-03    0.03       5.1  T
  17    -61.9979770 -0.298717E-06  0.110E-03    0.03      12.7  T
  18    -61.9979769  0.495082E-07  0.149E-03    0.03       9.4  T
  19    -61.9979770 -0.106420E-06  0.133E-04    0.03     105.6  T
  20    -61.9979770  0.241442E-09  0.146E-04    0.03      95.7  T
     SCC iter.                  ...        0 min,  0.373 sec
     gradient                   ...        0 min,  0.070 sec
 * total energy  :   -61.1215673 Eh     change       -0.4206911E+00 Eh
   gradient norm :     0.5909849 Eh/α   predicted    -0.3874941E+00 (  -7.89%)
   displ. norm   :     0.7968770 α      lambda       -0.3683521E+00
   maximum displ.:     0.3639739 α      in ANC's #37, #40, #139, ...

........................................................................
.............................. CYCLE    9 ..............................
........................................................................

 iter      E             dE          RMSdq      gap      omega  full diag
   1    -62.0117628 -0.620118E+02  0.179E+00    0.08       0.0  T
   2    -61.6983495  0.313413E+00  0.332E+00    0.41       1.0  T
   3    -62.0701767 -0.371827E+00  0.167E+00    0.87       1.0  T
   4    -62.1263189 -0.561423E-01  0.135E+00    0.34       1.0  T
   5    -62.1606411 -0.343222E-01  0.832E-01    0.13       1.0  T
   6    -61.8783933  0.282248E+00  0.248E+00    0.27       1.0  T
   7    -62.1736266 -0.295233E+00  0.724E-01    0.11       1.0  T
   8    -62.1411497  0.324769E-01  0.109E+00    0.21       1.0  T
   9    -62.1544475 -0.132977E-01  0.962E-01    0.16       1.0  T
  10    -62.1779733 -0.235258E-01  0.640E-01    0.11       1.0  T
  11    -62.1889145 -0.109412E-01  0.417E-01    0.08       1.0  T
  12    -62.1876511  0.126345E-02  0.447E-01    0.09       1.0  T
  13    -62.1962949 -0.864387E-02  0.980E-02    0.06       1.0  T
  14    -62.1967030 -0.408108E-03  0.171E-02    0.05       1.0  T
  15    -62.1967148 -0.117159E-04  0.675E-03    0.06       2.1  T
  16    -62.1967077  0.704785E-05  0.137E-02    0.05       1.0  T
  17    -62.1967162 -0.844905E-05  0.291E-03    0.06       4.8  T
  18    -62.1967166 -0.399778E-06  0.312E-04    0.06      44.9  T
  19    -62.1967166 -0.109910E-08  0.273E-04    0.06      51.3  T
     SCC iter.                  ...        0 min,  0.165 sec
     gradient                   ...        0 min,  0.058 sec
 * total energy  :   -61.4389299 Eh     change       -0.3173626E+00 Eh
   gradient norm :     0.4148246 Eh/α   predicted    -0.3011305E+00 (  -5.11%)
   displ. norm   :     0.8379714 α      lambda       -0.2835550E+00
   maximum displ.:     0.4203681 α      in ANC's #37, #40, #26, ...

........................................................................
.............................. CYCLE   10 ..............................
........................................................................

 iter      E             dE          RMSdq      gap      omega  full diag
   1    -62.3652140 -0.623652E+02  0.918E-01    0.12       0.0  T
   2    -62.3565158  0.869824E-02  0.678E-01    0.17       1.0  T
   3    -61.8195703  0.536946E+00  0.293E+00    0.60       1.0  T
   4    -62.3569019 -0.537332E+00  0.597E-01    0.18       1.0  T
   5    -62.3696627 -0.127608E-01  0.248E-01    0.13       1.0  T
   6    -62.3660163  0.364644E-02  0.345E-01    0.14       1.0  T
   7    -62.3713615 -0.534519E-02  0.854E-02    0.12       1.0  T
   8    -62.3715671 -0.205626E-03  0.216E-02    0.11       1.0  T
   9    -62.3715167  0.503809E-04  0.351E-02    0.12       1.0  T
  10    -62.3715480 -0.313299E-04  0.212E-02    0.11       1.0  T
  11    -62.3715647 -0.166236E-04  0.984E-03    0.11       1.4  T
  12    -62.3715695 -0.481255E-05  0.159E-03    0.11       8.8  T
  13    -62.3715691  0.409941E-06  0.304E-03    0.11       4.6  T
  14    -62.3715694 -0.385484E-06  0.101E-03    0.11      13.9  T
  15    -62.3715695 -0.370690E-07  0.315E-04    0.11      44.4  T
  16    -62.3715695 -0.467760E-08  0.481E-05    0.11     291.0  T
     SCC iter.                  ...        0 min,  0.293 sec
     gradient                   ...        0 min,  0.105 sec
 * total energy  :   -61.6907415 Eh     change       -0.2518116E+00 Eh
   gradient norm :     0.3231315 Eh/α   predicted    -0.2413331E+00 (  -4.16%)
   displ. norm   :     0.8655121 α      lambda       -0.2372150E+00
   maximum displ.:     0.4451028 α      in ANC's #37, #40, #26, ...

........................................................................
.............................. CYCLE   11 ..............................
........................................................................

 iter      E             dE          RMSdq      gap      omega  full diag
   1    -62.5369463 -0.625369E+02  0.951E-01    0.36       0.0  T
   2    -62.5420776 -0.513131E-02  0.455E-01    0.26       1.0  T
   3    -62.5401780  0.189956E-02  0.357E-01    0.43       1.0  T
   4    -62.5126425  0.275355E-01  0.681E-01    0.18       1.0  T
   5    -62.5419160 -0.292735E-01  0.254E-01    0.39       1.0  T
   6    -62.5432117 -0.129576E-02  0.169E-01    0.37       1.0  T
   7    -62.5438193 -0.607608E-03  0.115E-01    0.34       1.0  T
   8    -62.5442725 -0.453130E-03  0.564E-02    0.32       1.0  T
   9    -62.5443494 -0.769119E-04  0.227E-02    0.30       1.0  T
  10    -62.5443708 -0.213689E-04  0.549E-03    0.30       2.6  T
  11    -62.5443715 -0.748457E-06  0.239E-03    0.31       5.8  T
  12    -62.5443716 -0.667780E-07  0.113E-03    0.30      12.4  T
  13    -62.5443716 -0.345175E-08  0.903E-04    0.30      15.5  T
  14    -62.5443716 -0.193744E-07  0.573E-04    0.30      24.4  T
     SCC iter.                  ...        0 min,  0.735 sec
     gradient                   ...        0 min,  0.145 sec
 * total energy  :   -61.9080482 Eh     change       -0.2173067E+00 Eh
   gradient norm :     0.2850497 Eh/α   predicted    -0.2074579E+00 (  -4.53%)
   displ. norm   :     0.8920889 α      lambda       -0.2172435E+00
   maximum displ.:     0.4453185 α      in ANC's #37, #40, #26, ...

........................................................................
.............................. CYCLE   12 ..............................
........................................................................

 iter      E             dE          RMSdq      gap      omega  full diag
   1    -62.6958540 -0.626959E+02  0.937E-01    0.54       0.0  T
   2    -62.6736056  0.222484E-01  0.106E+00    1.46       1.0  T
   3    -62.7203795 -0.467738E-01  0.378E-01    0.80       1.0  T
   4    -62.7204001 -0.206423E-04  0.217E-01    0.76       1.0  T
   5    -62.7214672 -0.106706E-02  0.615E-02    0.83       1.0  T
   6    -62.7215543 -0.870934E-04  0.257E-02    0.84       1.0  T
   7    -62.7215539  0.347697E-06  0.131E-02    0.85       1.1  T
   8    -62.7215550 -0.107218E-05  0.754E-03    0.84       1.9  T
   9    -62.7215563 -0.130210E-05  0.335E-03    0.85       4.2  T
  10    -62.7215563 -0.447225E-07  0.133E-03    0.85      10.5  T
  11    -62.7215563 -0.111641E-07  0.601E-04    0.85      23.3  T
  12    -62.7215563 -0.945057E-09  0.320E-04    0.85      43.7  T
     SCC iter.                  ...        0 min,  1.056 sec
     gradient                   ...        0 min,  0.126 sec
 * total energy  :   -62.1072411 Eh     change       -0.1991929E+00 Eh
   gradient norm :     0.2605327 Eh/α   predicted    -0.1950656E+00 (  -2.07%)
   displ. norm   :     0.8807310 α      lambda       -0.1910965E+00
   maximum displ.:     0.4005937 α      in ANC's #37, #26, #139, ...

........................................................................
.............................. CYCLE   13 ..............................
........................................................................

 iter      E             dE          RMSdq      gap      omega  full diag
   1    -62.8578398 -0.628578E+02  0.927E-01    0.93       0.0  T
   2    -62.8142819  0.435579E-01  0.140E+00    1.71       1.0  T
   3    -62.8891090 -0.748271E-01  0.338E-01    1.35       1.0  T
   4    -62.8883955  0.713496E-03  0.212E-01    1.27       1.0  T
   5    -62.8892684 -0.872868E-03  0.617E-02    1.31       1.0  T
   6    -62.8893394 -0.710012E-04  0.310E-02    1.33       1.0  T
   7    -62.8893410 -0.160328E-05  0.148E-02    1.32       1.0  T
   8    -62.8893419 -0.948143E-06  0.567E-03    1.33       2.5  T
   9    -62.8893425 -0.582044E-06  0.317E-03    1.33       4.4  T
  10    -62.8893425 -0.195134E-07  0.161E-03    1.33       8.7  T
  11    -62.8893426 -0.383833E-07  0.483E-04    1.32      29.0  T
  12    -62.8893426 -0.268377E-08  0.208E-04    1.32      67.4  T
     SCC iter.                  ...        0 min,  1.116 sec
     gradient                   ...        0 min,  0.137 sec
 * total energy  :   -62.2804388 Eh     change       -0.1731977E+00 Eh
   gradient norm :     0.2344248 Eh/α   predicted    -0.1696640E+00 (  -2.04%)
   displ. norm   :     0.8609590 α      lambda       -0.1624775E+00
   maximum displ.:     0.3646308 α      in ANC's #37, #26, #98, ...

........................................................................
.............................. CYCLE   14 ..............................
........................................................................

 iter      E             dE          RMSdq      gap      omega  full diag
   1    -63.0187476 -0.630187E+02  0.828E-01    0.96       0.0  T
   2    -62.9581194  0.606282E-01  0.155E+00    1.53       1.0  T
   3    -63.0439408 -0.858214E-01  0.320E-01    1.23       1.0  T
   4    -63.0435006  0.440205E-03  0.189E-01    1.19       1.0  T
   5    -63.0441833 -0.682774E-03  0.781E-02    1.19       1.0  T
   6    -63.0442807 -0.973173E-04  0.348E-02    1.21       1.0  T
   7    -63.0442879 -0.719326E-05  0.233E-02    1.19       1.0  T
   8    -63.0442916 -0.378943E-05  0.762E-03    1.19       1.8  T
   9    -63.0442925 -0.820366E-06  0.279E-03    1.19       5.0  T
  10    -63.0442925 -0.124414E-07  0.127E-03    1.19      11.1  T
  11    -63.0442925 -0.299805E-07  0.312E-04    1.19      44.8  T
  12    -63.0442925 -0.320526E-09  0.148E-04    1.19      94.5  T
     SCC iter.                  ...        0 min,  0.510 sec
     gradient                   ...        0 min,  0.134 sec
 * total energy  :   -62.4239501 Eh     change       -0.1435113E+00 Eh
   gradient norm :     0.2055891 Eh/α   predicted    -0.1414571E+00 (  -1.43%)
   displ. norm   :     0.8313315 α      lambda       -0.1259729E+00
   maximum displ.:     0.3403529 α      in ANC's #37, #98, #26, ...

........................................................................
.............................. CYCLE   15 ..............................
........................................................................

 iter      E             dE          RMSdq      gap      omega  full diag
   1    -63.1609592 -0.631610E+02  0.674E-01    0.82       0.0  T
   2    -63.1049103  0.560489E-01  0.146E+00    1.32       1.0  T
   3    -63.1756551 -0.707448E-01  0.313E-01    1.06       1.0  T
   4    -63.1757910 -0.135890E-03  0.164E-01    1.06       1.0  T
   5    -63.1762004 -0.409437E-03  0.102E-01    1.04       1.0  T
   6    -63.1764131 -0.212700E-03  0.373E-02    1.06       1.0  T
   7    -63.1764289 -0.157411E-04  0.177E-02    1.05       1.0  T
   8    -63.1764305 -0.163388E-05  0.563E-03    1.05       2.5  T
   9    -63.1764307 -0.169533E-06  0.306E-03    1.05       4.6  T
  10    -63.1764308 -0.130033E-06  0.597E-04    1.05      23.4  T
  11    -63.1764308 -0.123175E-08  0.350E-04    1.05      40.1  T
     SCC iter.                  ...        0 min,  0.321 sec
     gradient                   ...        0 min,  0.120 sec
 * total energy  :   -62.5309863 Eh     change       -0.1070362E+00 Eh
   gradient norm :     0.1941947 Eh/α   predicted    -0.1065174E+00 (  -0.48%)
   displ. norm   :     0.7949275 α      lambda       -0.9219224E-01
   maximum displ.:     0.3002671 α      in ANC's #37, #26, #18, ...

........................................................................
.............................. CYCLE   16 ..............................
........................................................................

 iter      E             dE          RMSdq      gap      omega  full diag
   1    -63.2634616 -0.632635E+02  0.547E-01    0.77       0.0  T
   2    -63.2219113  0.415504E-01  0.125E+00    1.14       1.0  T
   3    -63.2717505 -0.498393E-01  0.264E-01    0.96       1.0  T
   4    -63.2718079 -0.573608E-04  0.137E-01    0.99       1.0  T
   5    -63.2720715 -0.263571E-03  0.989E-02    0.97       1.0  T
   6    -63.2722823 -0.210787E-03  0.358E-02    0.98       1.0  T
   7    -63.2723032 -0.209161E-04  0.118E-02    0.98       1.2  T
   8    -63.2723036 -0.387068E-06  0.576E-03    0.97       2.4  T
   9    -63.2723040 -0.401467E-06  0.205E-03    0.97       6.8  T
  10    -63.2723040 -0.520486E-07  0.618E-04    0.97      22.7  T
  11    -63.2723040 -0.296176E-09  0.267E-04    0.97      52.4  T
     SCC iter.                  ...        0 min,  0.318 sec
     gradient                   ...        0 min,  0.082 sec
 * total energy  :   -62.6108593 Eh     change       -0.7987299E-01 Eh
   gradient norm :     0.1867777 Eh/α   predicted    -0.7522478E-01 (  -5.82%)
   displ. norm   :     0.7934239 α      lambda       -0.7610065E-01
   maximum displ.:     0.2639669 α      in ANC's #37, #26, #16, ...

........................................................................
.............................. CYCLE   17 ..............................
........................................................................

 iter      E             dE          RMSdq      gap      omega  full diag
   1    -63.3328511 -0.633329E+02  0.491E-01    0.78       0.0  T
   2    -63.2984415  0.344096E-01  0.115E+00    1.06       1.0  T
   3    -63.3385828 -0.401414E-01  0.224E-01    0.92       1.0  T
   4    -63.3383367  0.246125E-03  0.132E-01    0.97       1.0  T
   5    -63.3385924 -0.255726E-03  0.100E-01    0.94       1.0  T
   6    -63.3388175 -0.225011E-03  0.319E-02    0.95       1.0  T
   7    -63.3388359 -0.184841E-04  0.829E-03    0.95       1.7  T
   8    -63.3388360 -0.734708E-07  0.480E-03    0.95       2.9  T
   9    -63.3388363 -0.319645E-06  0.149E-03    0.95       9.4  T
  10    -63.3388363 -0.123176E-07  0.749E-04    0.95      18.7  T
  11    -63.3388363 -0.310293E-08  0.252E-04    0.95      55.5  T
     SCC iter.                  ...        0 min,  0.271 sec
     gradient                   ...        0 min,  0.115 sec
 * total energy  :   -62.6764888 Eh     change       -0.6562951E-01 Eh
   gradient norm :     0.1647289 Eh/α   predicted    -0.6200400E-01 (  -5.52%)
   displ. norm   :     0.7845272 α      lambda       -0.5898948E-01
   maximum displ.:     0.2437316 α      in ANC's #26, #18, #16, ...

........................................................................
.............................. CYCLE   18 ..............................
........................................................................

 iter      E             dE          RMSdq      gap      omega  full diag
   1    -63.3725155 -0.633725E+02  0.529E-01    0.79       0.0  T
   2    -63.3266918  0.458237E-01  0.133E+00    0.96       1.0  T
   3    -63.3788495 -0.521577E-01  0.196E-01    0.88       1.0  T
   4    -63.3783188  0.530680E-03  0.141E-01    0.94       1.0  T
   5    -63.3787718 -0.452972E-03  0.789E-02    0.91       1.0  T
   6    -63.3789200 -0.148212E-03  0.196E-02    0.92       1.0  T
   7    -63.3789258 -0.580396E-05  0.581E-03    0.91       2.4  T
   8    -63.3789258 -0.468392E-07  0.336E-03    0.91       4.2  T
   9    -63.3789260 -0.199596E-06  0.109E-03    0.91      12.8  T
  10    -63.3789260  0.112204E-07  0.100E-03    0.91      13.9  T
  11    -63.3789260 -0.139958E-07  0.240E-04    0.91      58.3  T
  12    -63.3789260 -0.457739E-09  0.547E-05    0.91     255.9  T
     SCC iter.                  ...        0 min,  0.245 sec
     gradient                   ...        0 min,  0.087 sec
 * total energy  :   -62.7256975 Eh     change       -0.4920875E-01 Eh
   gradient norm :     0.1431911 Eh/α   predicted    -0.4764835E-01 (  -3.17%)
   displ. norm   :     0.7545089 α      lambda       -0.4109975E-01
   maximum displ.:     0.2619913 α      in ANC's #26, #16, #18, ...

........................................................................
.............................. CYCLE   19 ..............................
........................................................................

 iter      E             dE          RMSdq      gap      omega  full diag
   1    -63.3998155 -0.633998E+02  0.557E-01    0.81       0.0  T
   2    -63.3450748  0.547407E-01  0.147E+00    0.83       1.0  T
   3    -63.4056148 -0.605399E-01  0.224E-01    0.86       1.0  T
   4    -63.4055471  0.676953E-04  0.128E-01    0.86       1.0  T
   5    -63.4060261 -0.479048E-03  0.428E-02    0.85       1.0  T
   6    -63.4060718 -0.456808E-04  0.104E-02    0.85       1.3  T
   7    -63.4060719 -0.644030E-07  0.453E-03    0.85       3.1  T
   8    -63.4060722 -0.345040E-06  0.109E-03    0.85      12.8  T
   9    -63.4060722  0.116786E-07  0.113E-03    0.85      12.4  T
  10    -63.4060722 -0.148953E-07  0.597E-04    0.85      23.5  T
  11    -63.4060722 -0.573685E-08  0.135E-04    0.85     104.0  T
     SCC iter.                  ...        0 min,  0.164 sec
     gradient                   ...        0 min,  0.051 sec
 * total energy  :   -62.7592022 Eh     change       -0.3350470E-01 Eh
   gradient norm :     0.1301679 Eh/α   predicted    -0.3224861E-01 (  -3.75%)
   displ. norm   :     0.7172451 α      lambda       -0.3021332E-01
   maximum displ.:     0.2742082 α      in ANC's #26, #18, #40, ...

........................................................................
.............................. CYCLE   20 ..............................
........................................................................

 iter      E             dE          RMSdq      gap      omega  full diag
   1    -63.4184218 -0.634184E+02  0.754E-01    0.76       0.0  T
   2    -63.3153887  0.103033E+00  0.207E+00    0.75       1.0  T
   3    -63.4271433 -0.111755E+00  0.370E-01    0.77       1.0  T
   4    -63.4293416 -0.219838E-02  0.859E-02    0.74       1.0  T
   5    -63.4294931 -0.151429E-03  0.425E-02    0.73       1.0  T
   6    -63.4295079 -0.148690E-04  0.324E-02    0.73       1.0  T
   7    -63.4295235 -0.155993E-04  0.981E-03    0.73       1.4  T
   8    -63.4295246 -0.105879E-05  0.602E-03    0.73       2.3  T
   9    -63.4295252 -0.562996E-06  0.712E-04    0.73      19.7  T
  10    -63.4295252 -0.363111E-08  0.330E-04    0.73      42.5  T
     SCC iter.                  ...        0 min,  0.230 sec
     gradient                   ...        0 min,  0.056 sec
 * total energy  :   -62.7815889 Eh     change       -0.2238662E-01 Eh
   gradient norm :     0.1139698 Eh/α   predicted    -0.2287816E-01 (   2.20%)
   displ. norm   :     0.7585891 α      lambda       -0.2832517E-01
   maximum displ.:     0.2916254 α      in ANC's #18, #26, #16, ...
 * RMSD in coord.:     1.5669268 α      energy gain  -0.2093641E+02 Eh

generating ANC from exact Hessian ...
Using Lindh-Hessian (1995)
 Shifting diagonal of input Hessian by    1.1406311944970935E-002
 Lowest  eigenvalues of input Hessian
    0.010000    0.010680    0.011101    0.011210    0.011254    0.011277
    0.011319    0.011327    0.000000    0.000000    0.000000    0.000000
    0.000000    0.000000    0.011489    0.011602    0.011611    0.011657
 Highest eigenvalues
    1.391265    1.426232    1.426232    1.496574    1.767548    1.833608


........................................................................
.............................. CYCLE   21 ..............................
........................................................................

 iter      E             dE          RMSdq      gap      omega  full diag
   1    -63.4245204 -0.634245E+02  0.667E-01    0.74       0.0  T
   2    -63.3437570  0.807634E-01  0.187E+00    0.62       1.0  T
   3    -63.4289925 -0.852355E-01  0.394E-01    0.71       1.0  T
   4    -63.4315515 -0.255892E-02  0.561E-02    0.67       1.0  T
   5    -63.4315865 -0.350150E-04  0.348E-02    0.66       1.0  T
   6    -63.4316005 -0.140263E-04  0.940E-03    0.66       1.5  T
   7    -63.4316015 -0.996435E-06  0.496E-03    0.66       2.8  T
   8    -63.4316017 -0.185817E-06  0.362E-03    0.66       3.9  T
   9    -63.4316018 -0.996262E-07  0.798E-04    0.66      17.6  T
  10    -63.4316018 -0.245802E-08  0.215E-04    0.66      65.3  T
     SCC iter.                  ...        0 min,  0.185 sec
     gradient                   ...        0 min,  0.091 sec
 * total energy  :   -62.7962280 Eh     change       -0.1463914E-01 Eh
   gradient norm :     0.1182481 Eh/α   predicted     0.0000000E+00 (-100.00%)
   displ. norm   :     0.6690586 α      lambda       -0.6298669E-01
   maximum displ.:     0.4491713 α      in ANC's #70, #76, #27, ...

........................................................................
.............................. CYCLE   22 ..............................
........................................................................

 iter      E             dE          RMSdq      gap      omega  full diag
   1    -63.4955922 -0.634956E+02  0.102E+00    0.65       0.0  T
   2    -63.3659588  0.129633E+00  0.240E+00    0.50       1.0  T
   3    -63.4879422 -0.121983E+00  0.957E-01    0.72       1.0  T
   4    -63.5033168 -0.153746E-01  0.319E-01    0.56       1.0  T
   5    -63.5046512 -0.133442E-02  0.128E-01    0.53       1.0  T
   6    -63.5048038 -0.152542E-03  0.753E-02    0.53       1.0  T
   7    -63.5048732 -0.694365E-04  0.349E-02    0.52       1.0  T
   8    -63.5048858 -0.125957E-04  0.197E-02    0.52       1.0  T
   9    -63.5048918 -0.602413E-05  0.531E-03    0.52       2.6  T
  10    -63.5048920 -0.186370E-06  0.138E-03    0.52      10.1  T
  11    -63.5048920 -0.860108E-08  0.926E-04    0.52      15.1  T
  12    -63.5048921 -0.130106E-07  0.919E-05    0.52     152.4  T
     SCC iter.                  ...        0 min,  0.172 sec
     gradient                   ...        0 min,  0.049 sec
 * total energy  :   -62.8527454 Eh     change       -0.5651740E-01 Eh
   gradient norm :     0.0999472 Eh/α   predicted    -0.4559197E-01 ( -19.33%)
   displ. norm   :     0.8977523 α      lambda       -0.7483864E-01
   maximum displ.:     0.5109320 α      in ANC's #70, #49, #76, ...

........................................................................
.............................. CYCLE   23 ..............................
........................................................................

 iter      E             dE          RMSdq      gap      omega  full diag
   1    -63.5669997 -0.635670E+02  0.136E+00    0.64       0.0  T
   2    -63.3223750  0.244625E+00  0.343E+00    0.42       1.0  T
   3    -63.5605057 -0.238131E+00  0.117E+00    0.72       1.0  T
   4    -63.5770765 -0.165708E-01  0.606E-01    0.46       1.0  T
   5    -63.5789078 -0.183125E-02  0.454E-01    0.43       1.0  T
   6    -63.5820339 -0.312618E-02  0.140E-01    0.37       1.0  T
   7    -63.5822814 -0.247430E-03  0.688E-02    0.35       1.0  T
   8    -63.5823073 -0.259622E-04  0.420E-02    0.35       1.0  T
   9    -63.5823090 -0.165309E-05  0.328E-02    0.35       1.0  T
  10    -63.5823197 -0.107467E-04  0.152E-02    0.35       1.0  T
  11    -63.5823229 -0.313745E-05  0.193E-03    0.35       7.2  T
  12    -63.5823229 -0.491177E-07  0.518E-04    0.35      27.1  T
  13    -63.5823229  0.324088E-08  0.590E-04    0.35      23.7  T
     SCC iter.                  ...        0 min,  0.266 sec
     gradient                   ...        0 min,  0.078 sec
 * total energy  :   -62.8987908 Eh     change       -0.4604538E-01 Eh
   gradient norm :     0.1145399 Eh/α   predicted    -0.6757796E-01 (  46.76%)
   displ. norm   :     0.6284580 α      lambda       -0.4170199E-01
   maximum displ.:     0.3122831 α      in ANC's #27, #49, #57, ...

........................................................................
.............................. CYCLE   24 ..............................
........................................................................

 iter      E             dE          RMSdq      gap      omega  full diag
   1    -63.6075231 -0.636075E+02  0.107E+00    0.43       0.0  T
   2    -63.3085758  0.298947E+00  0.389E+00    0.32       1.0  T
   3    -63.6019345 -0.293359E+00  0.998E-01    0.54       1.0  T
   4    -63.6089758 -0.704125E-02  0.739E-01    0.39       1.0  T
   5    -63.6105600 -0.158427E-02  0.604E-01    0.35       1.0  T
   6    -63.6119489 -0.138887E-02  0.524E-01    0.32       1.0  T
   7    -63.6121811 -0.232173E-03  0.509E-01    0.32       1.0  T
   8    -63.6141317 -0.195065E-02  0.368E-01    0.28       1.0  T
   9    -63.6162610 -0.212927E-02  0.821E-02    0.23       1.0  T
  10    -63.6163535 -0.925043E-04  0.357E-02    0.21       1.0  T
  11    -63.6163732 -0.197037E-04  0.104E-02    0.22       1.4  T
  12    -63.6163740 -0.807363E-06  0.762E-03    0.22       1.8  T
  13    -63.6163740  0.574350E-08  0.765E-03    0.22       1.8  T
  14    -63.6163749 -0.912174E-06  0.187E-03    0.22       7.5  T
  15    -63.6163750 -0.261695E-07  0.133E-03    0.22      10.5  T
  16    -63.6163750 -0.632426E-08  0.117E-03    0.22      12.0  T
  17    -63.6163750 -0.225024E-07  0.716E-05    0.22     195.7  T
  18    -63.6163750 -0.613696E-10  0.325E-05    0.22     430.2  T
     SCC iter.                  ...        0 min,  0.163 sec
     gradient                   ...        0 min,  0.096 sec
 * total energy  :   -62.9246485 Eh     change       -0.2585773E-01 Eh
   gradient norm :     0.0766559 Eh/α   predicted    -0.2908630E-01 (  12.49%)
   displ. norm   :     0.7183935 α      lambda       -0.2647466E-01
   maximum displ.:     0.4317209 α      in ANC's #27, #49, #45, ...

........................................................................
.............................. CYCLE   25 ..............................
........................................................................

 iter      E             dE          RMSdq      gap      omega  full diag
   1    -63.6243578 -0.636244E+02  0.108E+00    0.55       0.0  T
   2    -63.5695958  0.547621E-01  0.155E+00    0.03       1.0  T
   3    -63.6187355 -0.491398E-01  0.852E-01    0.68       1.0  T
   4    -63.6249023 -0.616679E-02  0.607E-01    0.46       1.0  T
   5    -63.6253379 -0.435601E-03  0.495E-01    0.40       1.0  T
   6    -63.6255740 -0.236054E-03  0.471E-01    0.38       1.0  T
   7    -63.6258319 -0.257908E-03  0.448E-01    0.37       1.0  T
   8    -63.6261361 -0.304217E-03  0.418E-01    0.35       1.0  T
   9    -63.6278246 -0.168844E-02  0.213E-01    0.15       1.0  T
  10    -63.6282738 -0.449217E-03  0.102E-01    0.22       1.0  T
  11    -63.6284170 -0.143210E-03  0.297E-02    0.18       1.0  T
  12    -63.6283285  0.884843E-04  0.859E-02    0.17       1.0  T
  13    -63.6284100 -0.815262E-04  0.386E-02    0.20       1.0  T
  14    -63.6284293 -0.192937E-04  0.254E-03    0.19       5.5  T
  15    -63.6284290  0.346106E-06  0.579E-03    0.19       2.4  T
  16    -63.6284294 -0.440416E-06  0.542E-04    0.19      25.8  T
  17    -63.6284294 -0.401700E-08  0.278E-05    0.19     504.6  T
     SCC iter.                  ...        0 min,  0.252 sec
     gradient                   ...        0 min,  0.063 sec
 * total energy  :   -62.9475062 Eh     change       -0.2285770E-01 Eh
   gradient norm :     0.0640137 Eh/α   predicted    -0.2006896E-01 ( -12.20%)
   displ. norm   :     0.8435361 α      lambda       -0.2973858E-01
   maximum displ.:     0.4947669 α      in ANC's #27, #76, #22, ...

........................................................................
.............................. CYCLE   26 ..............................
........................................................................

 iter      E             dE          RMSdq      gap      omega  full diag
   1    -63.6311290 -0.636311E+02  0.599E-01    0.84       0.0  T
   2    -63.6312139 -0.848236E-04  0.359E-01    0.82       1.0  T
   3    -63.6312009  0.129736E-04  0.375E-02    0.80       1.0  T
   4    -63.6312252 -0.243597E-04  0.122E-02    0.81       1.2  T
   5    -63.6312270 -0.171950E-05  0.866E-03    0.81       1.6  T
   6    -63.6312277 -0.736574E-06  0.273E-03    0.81       5.1  T
   7    -63.6312277 -0.249464E-07  0.698E-04    0.81      20.1  T
   8    -63.6312277 -0.156868E-08  0.386E-04    0.81      36.3  T
     SCC iter.                  ...        0 min,  0.094 sec
     gradient                   ...        0 min,  0.049 sec
 * total energy  :   -62.9658674 Eh     change       -0.1836122E-01 Eh
   gradient norm :     0.0645758 Eh/α   predicted    -0.2544958E-01 (  38.61%)
   displ. norm   :     0.6688653 α      lambda       -0.1526032E-01
   maximum displ.:     0.4580010 α      in ANC's #27, #22, #18, ...

........................................................................
.............................. CYCLE   27 ..............................
........................................................................

 iter      E             dE          RMSdq      gap      omega  full diag
   1    -63.6460390 -0.636460E+02  0.295E-01    0.80       0.0  T
   2    -63.6461296 -0.905928E-04  0.193E-01    0.84       1.0  T
   3    -63.6459708  0.158770E-03  0.115E-01    0.76       1.0  T
   4    -63.6462385 -0.267659E-03  0.333E-02    0.81       1.0  T
   5    -63.6462437 -0.523907E-05  0.123E-02    0.80       1.1  T
   6    -63.6462439 -0.144646E-06  0.202E-03    0.80       6.9  T
   7    -63.6462439 -0.245388E-07  0.128E-03    0.80      10.9  T
   8    -63.6462439 -0.540036E-08  0.452E-04    0.80      31.0  T
   9    -63.6462439 -0.508756E-09  0.178E-04    0.80      78.9  T
     SCC iter.                  ...        0 min,  0.203 sec
     gradient                   ...        0 min,  0.074 sec
 * total energy  :   -62.9769577 Eh     change       -0.1109027E-01 Eh
   gradient norm :     0.0470824 Eh/α   predicted    -0.1104376E-01 (  -0.42%)
   displ. norm   :     0.6725342 α      lambda       -0.1248730E-01
   maximum displ.:     0.4141972 α      in ANC's #27, #22, #10, ...

........................................................................
.............................. CYCLE   28 ..............................
........................................................................

 iter      E             dE          RMSdq      gap      omega  full diag
   1    -63.6567729 -0.636568E+02  0.200E-01    0.74       0.0  T
   2    -63.6569324 -0.159434E-03  0.132E-01    0.80       1.0  T
   3    -63.6570503 -0.117908E-03  0.852E-02    0.75       1.0  T
   4    -63.6571192 -0.689556E-04  0.304E-02    0.79       1.0  T
   5    -63.6571257 -0.649150E-05  0.133E-02    0.77       1.1  T
   6    -63.6571261 -0.321212E-06  0.301E-03    0.77       4.7  T
   7    -63.6571261 -0.377992E-07  0.136E-03    0.77      10.3  T
   8    -63.6571261 -0.486047E-08  0.688E-04    0.77      20.3  T
   9    -63.6571261 -0.191947E-08  0.358E-04    0.77      39.1  T
     SCC iter.                  ...        0 min,  0.078 sec
     gradient                   ...        0 min,  0.099 sec
 * total energy  :   -62.9858154 Eh     change       -0.8857674E-02 Eh
   gradient norm :     0.0340952 Eh/α   predicted    -0.9067673E-02 (   2.37%)
   displ. norm   :     0.7237912 α      lambda       -0.9135883E-02
   maximum displ.:     0.4111976 α      in ANC's #27, #18, #10, ...

........................................................................
.............................. CYCLE   29 ..............................
........................................................................

 iter      E             dE          RMSdq      gap      omega  full diag
   1    -63.6707573 -0.636708E+02  0.282E-01    0.95       0.0  T
   2    -63.6708054 -0.481601E-04  0.175E-01    0.99       1.0  T
   3    -63.6705733  0.232113E-03  0.926E-02    0.92       1.0  T
   4    -63.6708581 -0.284799E-03  0.111E-02    0.97       1.3  T
   5    -63.6708588 -0.668094E-06  0.551E-03    0.96       2.5  T
   6    -63.6708588 -0.404697E-07  0.175E-03    0.96       8.0  T
   7    -63.6708588 -0.106194E-07  0.592E-04    0.96      23.7  T
   8    -63.6708588 -0.617725E-09  0.332E-04    0.96      42.2  T
     SCC iter.                  ...        0 min,  0.174 sec
     gradient                   ...        0 min,  0.096 sec
 * total energy  :   -62.9926683 Eh     change       -0.6852917E-02 Eh
   gradient norm :     0.0210609 Eh/α   predicted    -0.6960969E-02 (   1.58%)
   displ. norm   :     0.7709427 α      lambda       -0.6731825E-02
   maximum displ.:     0.4351002 α      in ANC's #27, #18, #22, ...

........................................................................
.............................. CYCLE   30 ..............................
........................................................................

 iter      E             dE          RMSdq      gap      omega  full diag
   1    -63.6766693 -0.636767E+02  0.241E-01    1.07       0.0  T
   2    -63.6767003 -0.309751E-04  0.145E-01    1.09       1.0  T
   3    -63.6765948  0.105528E-03  0.624E-02    1.04       1.0  T
   4    -63.6767229 -0.128094E-03  0.880E-03    1.07       1.6  T
   5    -63.6767234 -0.484116E-06  0.507E-03    1.06       2.8  T
   6    -63.6767235 -0.134543E-06  0.172E-03    1.07       8.2  T
   7    -63.6767235 -0.936939E-08  0.922E-04    1.07      15.2  T
   8    -63.6767235 -0.147300E-08  0.512E-04    1.07      27.3  T
     SCC iter.                  ...        0 min,  0.157 sec
     gradient                   ...        0 min,  0.081 sec
 * total energy  :   -62.9972005 Eh     change       -0.4532242E-02 Eh
   gradient norm :     0.0344229 Eh/α   predicted    -0.5366462E-02 (  18.41%)
   displ. norm   :     0.7524668 α      lambda       -0.6533504E-02
   maximum displ.:     0.3503729 α      in ANC's #27, #18, #25, ...

........................................................................
.............................. CYCLE   31 ..............................
........................................................................

 iter      E             dE          RMSdq      gap      omega  full diag
   1    -63.6610985 -0.636611E+02  0.201E-01    1.08       0.0  T
   2    -63.6611238 -0.252512E-04  0.119E-01    1.09       1.0  T
   3    -63.6610963  0.275106E-04  0.353E-02    1.08       1.0  T
   4    -63.6611331 -0.368170E-04  0.113E-02    1.09       1.2  T
   5    -63.6611337 -0.599638E-06  0.627E-03    1.09       2.2  T
   6    -63.6611339 -0.223805E-06  0.284E-03    1.09       4.9  T
   7    -63.6611339 -0.222519E-07  0.759E-04    1.09      18.4  T
   8    -63.6611339 -0.831129E-09  0.336E-04    1.09      41.7  T
     SCC iter.                  ...        0 min,  0.198 sec
     gradient                   ...        0 min,  0.097 sec
 * total energy  :   -63.0011209 Eh     change       -0.3920413E-02 Eh
   gradient norm :     0.0356826 Eh/α   predicted    -0.5116411E-02 (  30.51%)
   displ. norm   :     0.6012587 α      lambda       -0.4651304E-02
   maximum displ.:     0.3626634 α      in ANC's #27, #18, #12, ...

........................................................................
.............................. CYCLE   32 ..............................
........................................................................

 iter      E             dE          RMSdq      gap      omega  full diag
   1    -63.6761732 -0.636762E+02  0.167E-01    1.09       0.0  T
   2    -63.6761920 -0.188116E-04  0.104E-01    1.10       1.0  T
   3    -63.6761810  0.109925E-04  0.244E-02    1.10       1.0  T
   4    -63.6761958 -0.147703E-04  0.993E-03    1.09       1.4  T
   5    -63.6761967 -0.929845E-06  0.572E-03    1.10       2.4  T
   6    -63.6761970 -0.313113E-06  0.921E-04    1.10      15.2  T
   7    -63.6761970 -0.529722E-08  0.467E-04    1.10      30.0  T
     SCC iter.                  ...        0 min,  0.087 sec
     gradient                   ...        0 min,  0.091 sec
 * total energy  :   -63.0039212 Eh     change       -0.2800227E-02 Eh
   gradient norm :     0.0222896 Eh/α   predicted    -0.3166404E-02 (  13.08%)
   displ. norm   :     0.6442966 α      lambda       -0.4028173E-02
   maximum displ.:     0.2748779 α      in ANC's #18, #27, #12, ...

........................................................................
.............................. CYCLE   33 ..............................
........................................................................

 iter      E             dE          RMSdq      gap      omega  full diag
   1    -63.6769476 -0.636769E+02  0.229E-01    1.17       0.0  T
   2    -63.6769681 -0.204931E-04  0.147E-01    1.18       1.0  T
   3    -63.6769713 -0.318778E-05  0.276E-02    1.18       1.0  T
   4    -63.6769716 -0.322387E-06  0.174E-02    1.18       1.0  T
   5    -63.6769720 -0.390322E-06  0.760E-03    1.18       1.8  T
   6    -63.6769731 -0.110182E-05  0.262E-03    1.18       5.3  T
   7    -63.6769731 -0.537261E-07  0.980E-04    1.18      14.3  T
   8    -63.6769731 -0.714550E-09  0.328E-04    1.18      42.8  T
     SCC iter.                  ...        0 min,  0.067 sec
     gradient                   ...        0 min,  0.090 sec
 * total energy  :   -63.0061585 Eh     change       -0.2237320E-02 Eh
   gradient norm :     0.0311672 Eh/α   predicted    -0.2850170E-02 (  27.39%)
   displ. norm   :     0.5892762 α      lambda       -0.3823221E-02
   maximum displ.:     0.2667002 α      in ANC's #18, #12, #27, ...

........................................................................
.............................. CYCLE   34 ..............................
........................................................................

 iter      E             dE          RMSdq      gap      omega  full diag
   1    -63.6812013 -0.636812E+02  0.324E-01    1.27       0.0  T
   2    -63.6812229 -0.215770E-04  0.201E-01    1.29       1.0  T
   3    -63.6812032  0.196493E-04  0.292E-02    1.28       1.0  T
   4    -63.6812247 -0.214300E-04  0.163E-02    1.30       1.0  T
   5    -63.6812279 -0.324760E-05  0.682E-03    1.30       2.1  T
   6    -63.6812280 -0.860025E-07  0.195E-03    1.30       7.2  T
   7    -63.6812280 -0.930601E-08  0.785E-04    1.30      17.8  T
   8    -63.6812280 -0.135949E-08  0.349E-04    1.30      40.1  T
     SCC iter.                  ...        0 min,  0.166 sec
     gradient                   ...        0 min,  0.064 sec
 * total energy  :   -63.0086256 Eh     change       -0.2467115E-02 Eh
   gradient norm :     0.0182101 Eh/α   predicted    -0.2575415E-02 (   4.39%)
   displ. norm   :     0.6634192 α      lambda       -0.3110427E-02
   maximum displ.:     0.3696213 α      in ANC's #12, #18, #27, ...

........................................................................
.............................. CYCLE   35 ..............................
........................................................................

 iter      E             dE          RMSdq      gap      omega  full diag
   1    -63.6738323 -0.636738E+02  0.366E-01    1.28       0.0  T
   2    -63.6738533 -0.210471E-04  0.232E-01    1.32       1.0  T
   3    -63.6737732  0.801246E-04  0.474E-02    1.30       1.0  T
   4    -63.6738614 -0.882163E-04  0.156E-02    1.33       1.0  T
   5    -63.6738629 -0.151005E-05  0.863E-03    1.33       1.6  T
   6    -63.6738630 -0.907133E-07  0.200E-03    1.33       7.0  T
   7    -63.6738630 -0.947998E-08  0.832E-04    1.33      16.8  T
   8    -63.6738630 -0.177104E-08  0.392E-04    1.33      35.7  T
     SCC iter.                  ...        0 min,  0.159 sec
     gradient                   ...        0 min,  0.095 sec
 * total energy  :   -63.0107171 Eh     change       -0.2091489E-02 Eh
   gradient norm :     0.0199988 Eh/α   predicted    -0.2239704E-02 (   7.09%)
   displ. norm   :     0.6774725 α      lambda       -0.3038245E-02
   maximum displ.:     0.4204076 α      in ANC's #12, #18, #2, ...

........................................................................
.............................. CYCLE   36 ..............................
........................................................................

 iter      E             dE          RMSdq      gap      omega  full diag
   1    -63.6789574 -0.636790E+02  0.371E-01    1.33       0.0  T
   2    -63.6789878 -0.303677E-04  0.239E-01    1.36       1.0  T
   3    -63.6789765  0.112891E-04  0.314E-02    1.36       1.0  T
   4    -63.6789895 -0.130005E-04  0.173E-02    1.38       1.0  T
   5    -63.6789921 -0.257950E-05  0.104E-02    1.38       1.3  T
   6    -63.6789928 -0.738308E-06  0.246E-03    1.38       5.7  T
   7    -63.6789928 -0.100091E-07  0.114E-03    1.38      12.3  T
   8    -63.6789928 -0.385110E-08  0.427E-04    1.38      32.8  T
   9    -63.6789928 -0.244640E-09  0.709E-05    1.38     197.4  T
     SCC iter.                  ...        0 min,  0.118 sec
     gradient                   ...        0 min,  0.056 sec
 * total energy  :   -63.0129181 Eh     change       -0.2201000E-02 Eh
   gradient norm :     0.0227582 Eh/α   predicted    -0.2216355E-02 (   0.70%)
   displ. norm   :     0.6864466 α      lambda       -0.2888476E-02
   maximum displ.:     0.4513133 α      in ANC's #12, #18, #5, ...

........................................................................
.............................. CYCLE   37 ..............................
........................................................................

 iter      E             dE          RMSdq      gap      omega  full diag
   1    -63.6840731 -0.636841E+02  0.280E-01    1.38       0.0  T
   2    -63.6840926 -0.195531E-04  0.183E-01    1.41       1.0  T
   3    -63.6840506  0.419671E-04  0.358E-02    1.40       1.0  T
   4    -63.6840969 -0.462369E-04  0.138E-02    1.42       1.0  T
   5    -63.6840985 -0.165736E-05  0.831E-03    1.42       1.7  T
   6    -63.6840986 -0.461313E-07  0.174E-03    1.42       8.0  T
   7    -63.6840986 -0.995176E-08  0.855E-04    1.42      16.4  T
   8    -63.6840986 -0.136974E-08  0.421E-04    1.42      33.3  T
     SCC iter.                  ...        0 min,  0.083 sec
     gradient                   ...        0 min,  0.092 sec
 * total energy  :   -63.0150268 Eh     change       -0.2108753E-02 Eh
   gradient norm :     0.0178425 Eh/α   predicted    -0.2124778E-02 (   0.76%)
   displ. norm   :     0.7314842 α      lambda       -0.3115354E-02
   maximum displ.:     0.4833416 α      in ANC's #12, #18, #25, ...

........................................................................
.............................. CYCLE   38 ..............................
........................................................................

 iter      E             dE          RMSdq      gap      omega  full diag
   1    -63.6925281 -0.636925E+02  0.235E-01    1.42       0.0  T
   2    -63.6925479 -0.198545E-04  0.146E-01    1.46       1.0  T
   3    -63.6925104  0.375045E-04  0.360E-02    1.44       1.0  T
   4    -63.6925545 -0.440635E-04  0.132E-02    1.47       1.1  T
   5    -63.6925558 -0.131293E-05  0.816E-03    1.46       1.7  T
   6    -63.6925558 -0.425874E-07  0.228E-03    1.47       6.1  T
   7    -63.6925558 -0.185507E-07  0.618E-04    1.47      22.6  T
   8    -63.6925558 -0.714230E-09  0.243E-04    1.47      57.6  T
     SCC iter.                  ...        0 min,  0.085 sec
     gradient                   ...        0 min,  0.056 sec
 * total energy  :   -63.0166300 Eh     change       -0.1603149E-02 Eh
   gradient norm :     0.0369861 Eh/α   predicted    -0.2391149E-02 (  49.15%)
   displ. norm   :     0.6135949 α      lambda       -0.4187278E-02
   maximum displ.:     0.3814277 α      in ANC's #12, #18, #24, ...

........................................................................
.............................. CYCLE   39 ..............................
........................................................................

 iter      E             dE          RMSdq      gap      omega  full diag
   1    -63.6898652 -0.636899E+02  0.210E-01    1.45       0.0  T
   2    -63.6899019 -0.367952E-04  0.124E-01    1.48       1.0  T
   3    -63.6898636  0.383923E-04  0.429E-02    1.45       1.0  T
   4    -63.6899211 -0.575440E-04  0.134E-02    1.47       1.0  T
   5    -63.6899219 -0.792509E-06  0.651E-03    1.47       2.2  T
   6    -63.6899220 -0.121963E-06  0.152E-03    1.48       9.2  T
   7    -63.6899220 -0.992532E-08  0.818E-04    1.48      17.1  T
   8    -63.6899220 -0.941782E-09  0.281E-04    1.48      49.8  T
     SCC iter.                  ...        0 min,  0.081 sec
     gradient                   ...        0 min,  0.057 sec
 * total energy  :   -63.0146477 Eh     change        0.1982335E-02 Eh
   gradient norm :     0.0810534 Eh/α   predicted    -0.2881894E-02 (-245.38%)
   displ. norm   :     0.3443982 α      lambda       -0.1028372E-01
   maximum displ.:     0.1461180 α      in ANC's #40, #37, #24, ...

........................................................................
.............................. CYCLE   40 ..............................
........................................................................

 iter      E             dE          RMSdq      gap      omega  full diag
   1    -63.6796632 -0.636797E+02  0.147E-01    1.44       0.0  T
   2    -63.6796938 -0.305748E-04  0.885E-02    1.45       1.0  T
   3    -63.6796871  0.668009E-05  0.308E-02    1.43       1.0  T
   4    -63.6797077 -0.205553E-04  0.153E-02    1.44       1.0  T
   5    -63.6797089 -0.117984E-05  0.654E-03    1.45       2.1  T
   6    -63.6797089 -0.863762E-07  0.207E-03    1.45       6.8  T
   7    -63.6797090 -0.214288E-07  0.495E-04    1.45      28.3  T
   8    -63.6797090 -0.841304E-09  0.271E-04    1.45      51.6  T
     SCC iter.                  ...        0 min,  0.062 sec
     gradient                   ...        0 min,  0.048 sec
 * total energy  :   -63.0177858 Eh     change       -0.3138117E-02 Eh
   gradient norm :     0.0526898 Eh/α   predicted    -0.5751739E-02 (  83.29%)
   displ. norm   :     0.4112164 α      lambda       -0.8009014E-02
   maximum displ.:     0.1972789 α      in ANC's #37, #17, #25, ...

........................................................................
.............................. CYCLE   41 ..............................
........................................................................

 iter      E             dE          RMSdq      gap      omega  full diag
   1    -63.7001610 -0.637002E+02  0.227E-01    1.43       0.0  T
   2    -63.7001811 -0.200947E-04  0.141E-01    1.44       1.0  T
   3    -63.7001864 -0.529926E-05  0.167E-02    1.45       1.0  T
   4    -63.7001902 -0.374430E-05  0.102E-02    1.44       1.4  T
   5    -63.7001916 -0.142266E-05  0.486E-03    1.45       2.9  T
   6    -63.7001917 -0.132839E-06  0.180E-03    1.45       7.8  T
   7    -63.7001917 -0.119303E-07  0.551E-04    1.45      25.4  T
   8    -63.7001917 -0.125968E-08  0.253E-04    1.45      55.4  T
     SCC iter.                  ...        0 min,  0.182 sec
     gradient                   ...        0 min,  0.100 sec
 * total energy  :   -63.0171028 Eh     change        0.6829637E-03 Eh
   gradient norm :     0.0804372 Eh/α   predicted    -0.4681664E-02 (-785.49%)
   displ. norm   :     0.3042938 α      lambda       -0.6647659E-02
   maximum displ.:     0.1787609 α      in ANC's #18, #12, #17, ...

........................................................................
.............................. CYCLE   42 ..............................
........................................................................

 iter      E             dE          RMSdq      gap      omega  full diag
   1    -63.6945809 -0.636946E+02  0.102E-01    1.46       0.0  T
   2    -63.6945983 -0.173869E-04  0.589E-02    1.48       1.0  T
   3    -63.6945845  0.137866E-04  0.284E-02    1.47       1.0  T
   4    -63.6946062 -0.217118E-04  0.703E-03    1.48       2.0  T
   5    -63.6946066 -0.412153E-06  0.318E-03    1.48       4.4  T
   6    -63.6946067 -0.302862E-07  0.153E-03    1.48       9.1  T
   7    -63.6946067 -0.916247E-08  0.676E-04    1.48      20.7  T
   8    -63.6946067 -0.706052E-09  0.230E-04    1.48      60.9  T
     SCC iter.                  ...        0 min,  0.125 sec
     gradient                   ...        0 min,  0.078 sec
 * total energy  :   -63.0211288 Eh     change       -0.4025992E-02 Eh
   gradient norm :     0.0131239 Eh/α   predicted    -0.3631605E-02 (  -9.80%)
   displ. norm   :     0.7151575 α      lambda       -0.2347932E-02
   maximum displ.:     0.4938700 α      in ANC's #12, #18, #2, ...
 * RMSD in coord.:     1.3847172 α      energy gain  -0.2395399E+00 Eh

generating ANC from exact Hessian ...
Using Lindh-Hessian (1995)
 Shifting diagonal of input Hessian by    2.0743925342937945E-002
 Lowest  eigenvalues of input Hessian
    0.010000    0.019133    0.019548    0.020429    0.020527    0.020538
    0.020600    0.020650    0.020703    0.000000    0.000000    0.000000
    0.000000    0.000000    0.020782    0.000000    0.020805    0.020888
 Highest eigenvalues
    1.433488    1.439131    1.455685    1.550531    1.903930    2.173103


........................................................................
.............................. CYCLE   43 ..............................
........................................................................

 iter      E             dE          RMSdq      gap      omega  full diag
   1    -63.6894361 -0.636894E+02  0.192E-01    1.46       0.0  T
   2    -63.6894680 -0.319312E-04  0.126E-01    1.50       1.0  T
   3    -63.6893776  0.904716E-04  0.647E-02    1.48       1.0  T
   4    -63.6894870 -0.109414E-03  0.160E-02    1.51       1.0  T
[...]
          :  # electrons                       110          :
          :  max. iterations                   250          :
          :  Hamiltonian                  GFN2-xTB          :
          :  restarted?                      false          :
          :  GBSA solvation                   true          :
          :  PC potential                    false          :
          :  electronic temp.          300.0000000     K    :
          :  accuracy                    1.0000000          :
          :  -> integral cutoff          0.2500000E+02      :
          :  -> integral neglect         0.1000000E-07      :
          :  -> SCF convergence          0.1000000E-05 Eh   :
          :  -> wf. convergence          0.1000000E-03 e    :
          :  Broyden damping             0.4000000          :
          :  net charge                          2          :
          :  unpaired electrons                  0          :
          ...................................................

 iter      E             dE          RMSdq      gap      omega  full diag
   1    -63.8587829 -0.638588E+02  0.377E-02    4.49       0.0  T
   2    -63.8587830 -0.130885E-06  0.219E-02    4.50       1.0  T
   3    -63.8587830  0.469453E-07  0.202E-03    4.50       6.9  T
   4    -63.8587831 -0.792778E-07  0.108E-03    4.50      13.0  T
   5    -63.8587831 -0.146596E-07  0.417E-04    4.50      33.6  T
   6    -63.8587831 -0.597261E-09  0.159E-04    4.50      88.2  T

   *** convergence criteria satisfied after 6 iterations ***

         #    Occupation            Energy/Eh            Energy/eV
      -------------------------------------------------------------
         1        2.0000           -0.7675146             -20.8851
       ...           ...                  ...                  ...
        49        2.0000           -0.4311562             -11.7324
        50        2.0000           -0.4289428             -11.6721
        51        2.0000           -0.4241020             -11.5404
        52        2.0000           -0.4222247             -11.4893
        53        2.0000           -0.4173203             -11.3559
        54        2.0000           -0.4137597             -11.2590
        55        2.0000           -0.4122110             -11.2168 (HOMO)
        56                         -0.2469504              -6.7199 (LUMO)
        57                         -0.1755062              -4.7758
        58                         -0.0797972              -2.1714
        59                         -0.0232161              -0.6317
        60                         -0.0030566              -0.0832
       ...                                ...                  ...
       102                          0.7737047              21.0536
      -------------------------------------------------------------
                  HL-Gap            0.1652606 Eh            4.4970 eV
             Fermi-level           -0.3295807 Eh           -8.9683 eV

 SCC (total)                   0 d,  0 h,  0 min,  0.238 sec
 SCC setup                      ...        0 min,  0.007 sec (  3.088%)
 Dispersion                     ...        0 min,  0.008 sec (  3.362%)
 classical contributions        ...        0 min,  0.004 sec (  1.630%)
 integral evaluation            ...        0 min,  0.021 sec (  8.700%)
 iterations                     ...        0 min,  0.127 sec ( 53.486%)
 molecular gradient             ...        0 min,  0.070 sec ( 29.468%)
 printout                       ...        0 min,  0.001 sec (  0.246%)

         :::::::::::::::::::::::::::::::::::::::::::::::::::::
         ::                     SUMMARY                     ::
         :::::::::::::::::::::::::::::::::::::::::::::::::::::
         :: total energy             -63.183351704215 Eh    ::
         :: total w/o Gsasa/hb       -63.017159991798 Eh    ::
         :: gradient norm              0.001504604138 Eh/a0 ::
         :: HOMO-LUMO gap              4.496969653159 eV    ::
         ::.................................................::
         :: SCC energy               -63.858451530382 Eh    ::
         :: -> isotropic ES            0.790196481062 Eh    ::
         :: -> anisotropic ES         -0.070630062326 Eh    ::
         :: -> anisotropic XC          0.020018222126 Eh    ::
         :: -> dispersion             -0.035270136414 Eh    ::
         :: -> Gsolv                  -0.785486737406 Eh    ::
         ::    -> Gelec               -0.619295024989 Eh    ::
         ::    -> Gsasa               -0.001881045950 Eh    ::
         ::    -> Ghb                 -0.165391426166 Eh    ::
         ::    -> Gshift               0.001080759698 Eh    ::
         :: repulsion energy           0.675099826167 Eh    ::
         :: add. restraining           0.000000000000 Eh    ::
         :: total charge               2.000000000000 e     ::
         :::::::::::::::::::::::::::::::::::::::::::::::::::::

           -------------------------------------------------
          |                Property Printout                |
           -------------------------------------------------

    * Orbital Energies and Occupations

         #    Occupation            Energy/Eh            Energy/eV
      -------------------------------------------------------------
         1        2.0000           -0.7675146             -20.8851
       ...           ...                  ...                  ...
        43        2.0000           -0.4630051             -12.5990
        44        2.0000           -0.4569845             -12.4352
        45        2.0000           -0.4512161             -12.2782
        46        2.0000           -0.4446479             -12.0995
        47        2.0000           -0.4434401             -12.0666
        48        2.0000           -0.4327574             -11.7759
        49        2.0000           -0.4311562             -11.7324
        50        2.0000           -0.4289428             -11.6721
        51        2.0000           -0.4241020             -11.5404
        52        2.0000           -0.4222247             -11.4893
        53        2.0000           -0.4173203             -11.3559
        54        2.0000           -0.4137597             -11.2590
        55        2.0000           -0.4122110             -11.2168 (HOMO)
        56                         -0.2469504              -6.7199 (LUMO)
        57                         -0.1755062              -4.7758
        58                         -0.0797972              -2.1714
        59                         -0.0232161              -0.6317
        60                         -0.0030566              -0.0832
        61                          0.0518507               1.4109
        62                          0.0557953               1.5183
        63                          0.0854727               2.3258
        64                          0.0957303               2.6050
        65                          0.1005952               2.7373
        66                          0.1129054               3.0723
       ...                                ...                  ...
       102                          0.7737047              21.0536
      -------------------------------------------------------------
                  HL-Gap            0.1652606 Eh            4.4970 eV
             Fermi-level           -0.3295807 Eh           -8.9683 eV

     #   Z          covCN         q      C6AA      α(0)
     1   6 C        3.752    -0.109    22.645     6.786
     2   6 C        3.801    -0.057    21.594     6.616
     3   6 C        3.803    -0.064    21.733     6.637
     4   6 C        3.802    -0.062    21.691     6.631
     5   6 C        3.803    -0.069    21.818     6.650
     6   6 C        3.800    -0.062    21.689     6.631
     7   6 C        3.753    -0.140    23.247     6.876
     8   6 C        3.675     0.030    20.298     6.455
     9   6 C        2.903    -0.038    28.950     8.822
    10   6 C        2.761     0.069    26.430     8.419
    11   1 H        0.925     0.035     2.522     2.483
    12   1 H        0.925     0.027     2.634     2.538
    13   1 H        0.925     0.035     2.511     2.478
    14   1 H        0.924     0.025     2.662     2.551
    15   1 H        0.924     0.025     2.654     2.548
    16   1 H        0.924     0.032     2.554     2.499
    17   1 H        0.924     0.033     2.545     2.495
    18   1 H        0.924     0.022     2.709     2.574
    19   1 H        0.924     0.022     2.707     2.573
    20   1 H        0.924     0.038     2.477     2.461
    21   1 H        0.924     0.038     2.473     2.459
    22   1 H        0.924     0.021     2.718     2.578
    23   1 H        0.924     0.020     2.731     2.584
    24   1 H        0.925     0.060     2.194     2.316
    25   1 H        0.925     0.062     2.180     2.309
    26   1 H        0.924     0.073     2.056     2.242
    27   1 H        0.924     0.123     1.590     1.972
    28   1 H        0.926     0.122     1.598     1.977
    29   1 H        0.803     0.474     0.369     0.955
    30   1 H        0.926     0.133     1.511     1.922
    31   1 H        0.000    -0.999  3074.319   101.384
    32   1 H        0.903    -0.029     3.617     2.975
    33  48 Cd       1.989     0.281   195.752    26.855
    34   8 O        1.672    -0.567    24.385     6.667
    35   1 H        0.805     0.389     0.505     1.116
    36   1 H        0.805     0.390     0.504     1.115
    37   8 O        1.734    -0.408    20.974     6.184
    38   1 H        0.925     0.068     2.107     2.270
    39   1 H        0.805     0.392     0.499     1.109
    40   8 O        2.443    -0.252    18.145     5.753
    41   1 H        0.793     0.498     0.341     0.918
    42   1 H        0.803     0.473     0.371     0.957
    43   8 O        2.049    -0.570    24.399     6.671
    44   1 H        0.805     0.367     0.551     1.166
    45   1 H        0.805     0.366     0.552     1.167
    46   8 O        2.110    -0.544    23.806     6.590
    47   1 H        0.805     0.370     0.544     1.159
    48   1 H        0.805     0.372     0.540     1.154
    49   8 O        2.389    -0.455    21.894     6.320
    50   1 H        0.803     0.478     0.365     0.948
    51   1 H        0.797     0.465     0.383     0.973

 Mol. C6AA /au·bohr⁶  :      34127.505495
 Mol. C8AA /au·bohr⁸  :     717290.667634
 Mol. α(0) /au        :        300.489424


Wiberg/Mayer (AO) data.
largest (>0.10) Wiberg bond orders for each atom

 ---------------------------------------------------------------------------
     #   Z sym  total        # sym  WBO       # sym  WBO       # sym  WBO
 ---------------------------------------------------------------------------
     1   6 C    3.996 --     2 C    1.019    11 H    0.988    13 H    0.988
                            12 H    0.988
     2   6 C    3.997 --     1 C    1.019     3 C    1.007    15 H    0.979
                            14 H    0.979
     3   6 C    3.996 --     2 C    1.007     4 C    1.006    16 H    0.978
                            17 H    0.978
     4   6 C    3.996 --     3 C    1.006     5 C    1.006    18 H    0.978
                            19 H    0.978
     5   6 C    3.995 --     6 C    1.007     4 C    1.006    20 H    0.977
                            21 H    0.977
     6   6 C    3.994 --     7 C    1.017     5 C    1.007    23 H    0.979
                            22 H    0.979
     7   6 C    3.990 --     6 C    1.017    25 H    0.985    24 H    0.985
                            38 H    0.985
     8   6 C    3.928 --     9 C    1.004    26 H    0.963    37 O    0.953
                            27 H    0.952
     9   6 C    3.990 --    10 C    1.884     8 C    1.004    28 H    0.911
    10   6 C    3.904 --     9 C    1.884    40 O    0.974    30 H    0.944
    11   1 H    0.999 --     1 C    0.988
    12   1 H    0.999 --     1 C    0.988
    13   1 H    0.999 --     1 C    0.988
    14   1 H    0.999 --     2 C    0.979
    15   1 H    0.999 --     2 C    0.979
    16   1 H    0.999 --     3 C    0.978
    17   1 H    0.999 --     3 C    0.978
    18   1 H    1.000 --     4 C    0.978
    19   1 H    1.000 --     4 C    0.978
    20   1 H    0.999 --     5 C    0.977
    21   1 H    0.999 --     5 C    0.977
    22   1 H    1.000 --     6 C    0.979
    23   1 H    1.000 --     6 C    0.979
    24   1 H    0.996 --     7 C    0.985
    25   1 H    0.996 --     7 C    0.985
    26   1 H    0.995 --     8 C    0.963
    27   1 H    0.985 --     8 C    0.952
    28   1 H    0.985 --     9 C    0.911
    29   1 H    0.775 --    49 O    0.643    34 O    0.122
    30   1 H    0.982 --    10 C    0.944
    31   1 H    0.002
    32   1 H    0.999 --    33 Cd   0.854
    33  48 Cd   2.057 --    32 H    0.854    46 O    0.292    43 O    0.247
                            34 O    0.195    37 O    0.190
    34   8 O    2.071 --    35 H    0.838    36 H    0.837    33 Cd   0.195
                            29 H    0.122
    35   1 H    0.848 --    34 O    0.838
    36   1 H    0.848 --    34 O    0.837
    37   8 O    2.173 --     8 C    0.953    39 H    0.827    33 Cd   0.190
    38   1 H    0.995 --     7 C    0.985
    39   1 H    0.846 --    37 O    0.827
    40   8 O    2.489 --    10 C    0.974    42 H    0.764    41 H    0.621
    41   1 H    0.752 --    40 O    0.621    49 O    0.114
    42   1 H    0.776 --    40 O    0.764
    43   8 O    2.014 --    45 H    0.858    44 H    0.857    33 Cd   0.247
    44   1 H    0.865 --    43 O    0.857
    45   1 H    0.866 --    43 O    0.858
    46   8 O    2.066 --    47 H    0.855    48 H    0.853    33 Cd   0.292
    47   1 H    0.863 --    46 O    0.855
    48   1 H    0.862 --    46 O    0.853
    49   8 O    2.356 --    50 H    0.763    51 H    0.691    29 H    0.643
                            41 H    0.114
    50   1 H    0.772 --    49 O    0.763
    51   1 H    0.784 --    49 O    0.691
 ---------------------------------------------------------------------------

Topologies differ in total number of bonds
Writing topology from bond orders to xtbtopo.mol

molecular dipole:
                 x           y           z       tot (Debye)
 q only:       19.910      12.973      -8.349
   full:       19.844      11.851      -7.289      61.600
molecular quadrupole (traceless):
                xx          xy          yy          xz          yz          zz
 q only:      223.509     302.284    -140.844    -191.718     100.810     -82.665
  q+dip:      224.197     283.581    -139.512    -170.217      95.389     -84.685
   full:      226.001     284.059    -140.337    -170.058      96.063     -85.664

           -------------------------------------------------
          |                Geometry Summary                 |
           -------------------------------------------------

      molecular mass/u    :      362.7853318
   center of mass at/Å    :        4.0293896      -0.5272718       0.1125815
  moments of inertia/u·Å² :        0.1088570E+04   0.6871738E+04   0.7423383E+04
rotational constants/cm⁻¹ :        0.1548604E-01   0.2453183E-02   0.2270883E-02

 * 42 selected distances

     #   Z          #   Z                                           value/Å
     1   6 C        2   6 C                                       1.5247232
     2   6 C        3   6 C                                       1.5270630
     3   6 C        4   6 C                                       1.5279977
     4   6 C        5   6 C                                       1.5270551
     5   6 C        6   6 C                                       1.5286359
     6   6 C        7   6 C                                       1.5249756
     9   6 C       10   6 C                                       1.3255108
     1   6 C       11   1 H                                       1.0880648
     1   6 C       12   1 H                                       1.0879276
     1   6 C       13   1 H                                       1.0879936
     2   6 C       14   1 H                                       1.0929568
     2   6 C       15   1 H                                       1.0929057
     3   6 C       16   1 H                                       1.0929416
     3   6 C       17   1 H                                       1.0927160
     4   6 C       18   1 H                                       1.0933296
     4   6 C       19   1 H                                       1.0935993
     5   6 C       20   1 H                                       1.0925569
     5   6 C       21   1 H                                       1.0922790
     6   6 C       22   1 H                                       1.0930961
     6   6 C       23   1 H                                       1.0932870
     7   6 C       24   1 H                                       1.0862092
     7   6 C       25   1 H                                       1.0861334
     8   6 C       26   1 H                                       1.0918745
     8   6 C       27   1 H                                       1.0951620
     9   6 C       28   1 H                                       1.0805696
    10   6 C       30   1 H                                       1.0770971
    32   1 H       33  48 Cd                                      1.5677796 (max)
    34   8 O       35   1 H                                       0.9660640
    34   8 O       36   1 H                                       0.9656953
     8   6 C       37   8 O                                       1.4415671
     7   6 C       38   1 H                                       1.0850086
    37   8 O       39   1 H                                       0.9678326
    10   6 C       40   8 O                                       1.4083606
    40   8 O       41   1 H                                       1.0320682
    40   8 O       42   1 H                                       0.9794966
    43   8 O       44   1 H                                       0.9649970 (min)
    43   8 O       45   1 H                                       0.9650401
Note: The following floating-point exceptions are signalling: IEEE_INVALID_FLAG IEEE_UNDERFLOW_FLAG IEEE_DENORMAL
normal termination of xtb
    46   8 O       47   1 H                                       0.9654458
    46   8 O       48   1 H                                       0.9653694
    29   1 H       49   8 O                                       1.0363894
    49   8 O       50   1 H                                       0.9792290
    49   8 O       51   1 H                                       1.0146808

 * 5 distinct bonds (by element types)

   Z      Z             #   av. dist./Å        max./Å        min./Å
   1 H    6 C          20     1.0897854     1.0951620     1.0770971
   6 C    6 C           7     1.4979944     1.5286359     1.3255108
   1 H    8 O          12     0.9835257     1.0363894     0.9649970
   6 C    8 O           2     1.4249639     1.4415671     1.4083606
   1 H   48 Cd          1     1.5677796     1.5677796     1.5677796


optimized geometry written to: xtbopt.xyz


           -------------------------------------------------
          | TOTAL ENERGY              -63.183351704215 Eh   |
          | GRADIENT NORM               0.001504604138 Eh/α |
          | HOMO-LUMO GAP               4.496969653159 eV   |
           -------------------------------------------------

------------------------------------------------------------------------
 * finished run on 2026/05/26 at 02:12:34.607     
------------------------------------------------------------------------
 total:
 * wall-time:     0 d,  0 h,  1 min, 16.859 sec
 *  cpu-time:     0 d,  0 h,  2 min,  5.135 sec
 * ratio c/w:     1.628 speedup
 SCF:
 * wall-time:     0 d,  0 h,  0 min,  0.384 sec
 *  cpu-time:     0 d,  0 h,  0 min,  0.760 sec
 * ratio c/w:     1.978 speedup
 ANC optimizer:
 * wall-time:     0 d,  0 h,  1 min, 16.394 sec
 *  cpu-time:     0 d,  0 h,  2 min,  4.254 sec
 * ratio c/w:     1.626 speedup

