      -----------------------------------------------------------      
     |                   =====================                   |     
     |                           x T B                           |     
     |                   =====================                   |     
     |                         S. Grimme                         |     
     |          Mulliken Center for Theoretical Chemistry        |     
     |                    University of Bonn                     |     
      -----------------------------------------------------------      

   * xtb version 6.7.1 (edcfbbe) compiled by 'conda@c0858423619e' on 2025-09-04

   xtb is free software: you can redistribute it and/or modify it under
   the terms of the GNU Lesser General Public License as published by
   the Free Software Foundation, either version 3 of the License, or
   (at your option) any later version.
   
   xtb is distributed in the hope that it will be useful,
   but WITHOUT ANY WARRANTY; without even the implied warranty of
   MERCHANTABILITY or FITNESS FOR A PARTICULAR PURPOSE.  See the
   GNU Lesser General Public License for more details.
   
   Cite this work as:
   * C. Bannwarth, E. Caldeweyher, S. Ehlert, A. Hansen, P. Pracht,
     J. Seibert, S. Spicher, S. Grimme, WIREs Comput. Mol. Sci., 2020, 11,
     e01493. DOI: 10.1002/wcms.1493
   
   for GFN2-xTB:
   * C. Bannwarth, S. Ehlert and S. Grimme., J. Chem. Theory Comput., 2019,
     15, 1652-1671. DOI: 10.1021/acs.jctc.8b01176
   for GFN1-xTB:
   * S. Grimme, C. Bannwarth, P. Shushkov, J. Chem. Theory Comput., 2017,
     13, 1989-2009. DOI: 10.1021/acs.jctc.7b00118
   for GFN0-xTB:
   * P. Pracht, E. Caldeweyher, S. Ehlert, S. Grimme, ChemRxiv, 2019, preprint.
     DOI: 10.26434/chemrxiv.8326202.v1
   for GFN-FF:
   * S. Spicher and S. Grimme, Angew. Chem. Int. Ed., 2020, 59, 15665-15673.
     DOI: 10.1002/anie.202004239
   
   for ALPB and GBSA implicit solvation:
   * S. Ehlert, M. Stahn, S. Spicher, S. Grimme, J. Chem. Theory Comput.,
     2021, 17, 4250-4261. DOI: 10.1021/acs.jctc.1c00471
   
   for ddCOSMO and CPCM-X implicit solvation:
   * M. Stahn, S. Ehlert, S. Grimme, J. Phys. Chem. A,
     2023, XX, XXXX-XXXX. DOI: 10.1021/acs.jpca.3c04382
   
   for DFT-D4:
   * E. Caldeweyher, C. Bannwarth and S. Grimme, J. Chem. Phys., 2017,
     147, 034112. DOI: 10.1063/1.4993215
   * E. Caldeweyher, S. Ehlert, A. Hansen, H. Neugebauer, S. Spicher,
     C. Bannwarth and S. Grimme, J. Chem. Phys., 2019, 150, 154122.
     DOI: 10.1063/1.5090222
   * E. Caldeweyher, J.-M. Mewes, S. Ehlert and S. Grimme, Phys. Chem. Chem. Phys.
     2020, 22, 8499-8512. DOI: 10.1039/D0CP00502A
   
   for sTDA-xTB:
   * S. Grimme and C. Bannwarth, J. Chem. Phys., 2016, 145, 054103.
     DOI: 10.1063/1.4959605
   
   in the mass-spec context:
   * V. Asgeirsson, C. Bauer and S. Grimme, Chem. Sci., 2017, 8, 4879.
     DOI: 10.1039/c7sc00601b
   * J. Koopman and S. Grimme, ACS Omega 2019, 4, 12, 15120-15133.
     DOI: 10.1021/acsomega.9b02011
   
   for metadynamics refer to:
   * S. Grimme, J. Chem. Theory Comput., 2019, 155, 2847-2862
     DOI: 10.1021/acs.jctc.9b00143
   
   for SPH calculations refer to:
   * S. Spicher and S. Grimme, J. Chem. Theory Comput., 2021, 17, 1701-1714
     DOI: 10.1021/acs.jctc.0c01306
   
   for ONIOM refer to:
   * C. Plett, A. Katbashev, S. Ehlert, S. Grimme, M. Bursch,
     Phys. Chem. Chem. Phys., 2023, 25, 17860-17868. DOI: 10.1039/D3CP02178E
   
   for DIPRO refer to:
   * J. Kohn, N. Gildemeister, S. Grimme, D. Fazzi, A. Hansen,
     J. Chem. Phys., 2023, just accepted.
   
   for PTB refer to:
   * S. Grimme, M. Mueller, A. Hansen, J. Chem. Phys., 2023, 158, 124111.
     DOI: 10.1063/5.0137838
   
   with help from (in alphabetical order)
   P. Atkinson, C. Bannwarth, F. Bohle, G. Brandenburg, E. Caldeweyher
   M. Checinski, S. Dohm, S. Ehlert, S. Ehrlich, I. Gerasimov, C. Hölzer
   A. Katbashev, J. Kohn, J. Koopman, C. Lavigne, S. Lehtola, F. März, M. Müller,
   F. Musil, H. Neugebauer, J. Pisarek, C. Plett, P. Pracht, F. Pultar,
   J. Seibert, P. Shushkov, S. Spicher, M. Stahn, M. Steiner, T. Strunk,
   J. Stückrath, T. Rose, and J. Unsleber
   
 * started run on 2026/05/26 at 02:09:25.066     
   ID    Z sym.   atoms
    1    6 C      1-10
    2    1 H      11-32, 35, 36, 38, 39, 41, 42, 44, 45, 47, 48, 50, 51
    3   48 Cd     33
    4    8 O      34, 37, 40, 43, 46, 49

           -------------------------------------------------
          |                Calculation Setup                |
           -------------------------------------------------

          program call               : /content/xtb_env/bin/xtb input.xyz --gfn 2 --opt tight --alpb water --chrg 2 --uhf 0
          hostname                   : 01035569fb61
          coordinate file            : input.xyz
          omp threads                :                     2


molecular fragmentation (1/2 indicates fragments):
111111111111111111111111111111111111111112222222222
# atoms in fragment 1/2:    41    10
 fragment masses (1/2) :      307.73       55.05
CMA distance (Bohr)    :   4.311
constraining FC (au)   :  0.0500

           -------------------------------------------------
          |                 G F N 2 - x T B                 |
           -------------------------------------------------

        Reference                      10.1021/acs.jctc.8b01176
      * Hamiltonian:
        H0-scaling (s, p, d)           1.850000    2.230000    2.230000
        zeta-weighting                 0.500000
      * Dispersion:
        s8                             2.700000
        a1                             0.520000
        a2                             5.000000
        s9                             5.000000
      * Repulsion:
        kExp                           1.500000    1.000000
        rExp                           1.000000
      * Coulomb:
        alpha                          2.000000
        third order                    shell-resolved
        anisotropic                    true
        a3                             3.000000
        a5                             4.000000
        cn-shift                       1.200000
        cn-exp                         4.000000
        max-rad                        5.000000

      * Solvation model:               ALPB
        Solvent                        water
        Parameter file                 internal GFN2-xTB/ALPB
        Dielectric constant                8.0200E+01
        Reference state                gsolv [1 M gas/solution]
        Free energy shift                  1.0808E-03 Eh       6.7819E-01 kcal/mol
        Temperature                        2.9815E+02 K
        Density                            1.0000E+00 kg/L
        Solvent mass                       1.8000E+01 g/mol
        Interaction kernel             P16
        Born radius scaling (c1)           1.4744E+00
        Born radii integrator          GBOBC
        Born offset                        0.0000E+00 a0       0.0000E+00 AA
        H-bond correction              true
        Ion screening                  false
        Surface tension                    1.0000E-05 Eh       1.5569E+01 dyn/cm
        Grid points                               230 per atom

          ...................................................
          :                      SETUP                      :
          :.................................................:
          :  # basis functions                 102          :
          :  # atomic orbitals                 102          :
          :  # shells                           68          :
          :  # electrons                       110          :
          :  max. iterations                   250          :
          :  Hamiltonian                  GFN2-xTB          :
          :  restarted?                      false          :
          :  GBSA solvation                   true          :
          :  PC potential                    false          :
          :  electronic temp.          300.0000000     K    :
          :  accuracy                    1.0000000          :
          :  -> integral cutoff          0.2500000E+02      :
          :  -> integral neglect         0.1000000E-07      :
          :  -> SCF convergence          0.1000000E-05 Eh   :
          :  -> wf. convergence          0.1000000E-03 e    :
          :  Broyden damping             0.4000000          :
          :  net charge                          2          :
          :  unpaired electrons                  0          :
          ...................................................

 iter      E             dE          RMSdq      gap      omega  full diag
   1    -60.0070352 -0.600070E+02  0.715E+00    1.39       0.0  T
   2    -60.4918239 -0.484789E+00  0.476E+00    1.09       1.0  T
   3    -60.8161109 -0.324287E+00  0.259E+00    0.06       1.0  T
   4    -60.8234501 -0.733916E-02  0.157E+00    0.83       1.0  T
   5    -60.5732954  0.250155E+00  0.227E+00    0.22       1.0  T
   6    -60.8673595 -0.294064E+00  0.727E-01    0.31       1.0  T
   7    -60.8795353 -0.121758E-01  0.330E-01    0.12       1.0  T
   8    -60.8774804  0.205491E-02  0.337E-01    0.05       1.0  T
   9    -60.8822533 -0.477298E-02  0.149E-01    0.07       1.0  T
  10    -60.8815724  0.680888E-03  0.172E-01    0.07       1.0  T
  11    -60.8830425 -0.147002E-02  0.537E-02    0.08       1.0  T
  12    -60.8830079  0.346120E-04  0.544E-02    0.08       1.0  T
  13    -60.8831537 -0.145874E-03  0.216E-02    0.09       1.0  T
  14    -60.8831681 -0.143608E-04  0.138E-02    0.09       1.0  T
  15    -60.8831761 -0.797034E-05  0.653E-03    0.09       2.1  T
  16    -60.8831786 -0.253310E-05  0.512E-04    0.09      27.3  T
  17    -60.8831786 -0.423874E-08  0.267E-04    0.09      52.5  T
  18    -60.8831786 -0.143978E-08  0.102E-04    0.09     137.1  T

   *** convergence criteria satisfied after 18 iterations ***

         #    Occupation            Energy/Eh            Energy/eV
      -------------------------------------------------------------
         1        2.0000           -0.8959515             -24.3801
       ...           ...                  ...                  ...
        49        2.0000           -0.3385448              -9.2123
        50        2.0000           -0.3098398              -8.4312
        51        2.0000           -0.3067452              -8.3470
        52        2.0000           -0.2642938              -7.1918
        53        2.0000           -0.2553930              -6.9496
        54        2.0000           -0.2356619              -6.4127
        55        1.6847           -0.1921578              -5.2289 (HOMO)
        56        0.3153           -0.1889733              -5.1422 (LUMO)
        57                         -0.1485594              -4.0425
        58                         -0.1361704              -3.7054
        59                         -0.1062781              -2.8920
        60                         -0.0991767              -2.6987
       ...                                ...                  ...
       102                         34.0456206             926.4285
      -------------------------------------------------------------
                  HL-Gap            0.0031845 Eh            0.0867 eV
             Fermi-level           -0.1905656 Eh           -5.1856 eV

 SCC (total)                   0 d,  0 h,  0 min,  0.410 sec
 SCC setup                      ...        0 min,  0.008 sec (  1.908%)
 Dispersion                     ...        0 min,  0.008 sec (  1.951%)
 classical contributions        ...        0 min,  0.004 sec (  0.872%)
 integral evaluation            ...        0 min,  0.025 sec (  6.040%)
 iterations                     ...        0 min,  0.266 sec ( 64.856%)
 molecular gradient             ...        0 min,  0.099 sec ( 24.255%)
 printout                       ...        0 min,  0.000 sec (  0.110%)

         :::::::::::::::::::::::::::::::::::::::::::::::::::::
         ::                     SUMMARY                     ::
         :::::::::::::::::::::::::::::::::::::::::::::::::::::
         :: total energy             -19.984605781098 Eh    ::
         :: total w/o Gsasa/hb       -19.930883781398 Eh    ::
         :: gradient norm            114.596171975084 Eh/a0 ::
         :: HOMO-LUMO gap              0.086653879832 eV    ::
         ::.................................................::
         :: SCC energy               -60.883142137433 Eh    ::
         :: -> isotropic ES            0.727967953208 Eh    ::
         :: -> anisotropic ES          0.011392317120 Eh    ::
         :: -> anisotropic XC          0.014619173264 Eh    ::
         :: -> dispersion             -0.043724306670 Eh    ::
         :: -> Gsolv                  -0.512730348905 Eh    ::
         ::    -> Gelec               -0.459008349205 Eh    ::
         ::    -> Gsasa               -0.001461238997 Eh    ::
         ::    -> Ghb                 -0.053341520401 Eh    ::
         ::    -> Gshift               0.001080759698 Eh    ::
         :: repulsion energy          40.898536356335 Eh    ::
         :: add. restraining           0.000000000000 Eh    ::
         :: total charge               2.000000000000 e     ::
         :::::::::::::::::::::::::::::::::::::::::::::::::::::

      ----------------------------------------------------------- 
     |                   =====================                   |
     |                        A N C O P T                        |
     |                   =====================                   |
     |               Approximate Normal Coordinate               |
     |                Rational Function Optimizer                |
      ----------------------------------------------------------- 
      ----------------------------------------------------------- 
     |                   =====================                   |
     |                        A N C O P T                        |
     |                   =====================                   |
     |               Approximate Normal Coordinate               |
     |                Rational Function Optimizer                |
      ----------------------------------------------------------- 

          ...................................................
          :                      SETUP                      :
          :.................................................:
          :   optimization level             tight          :
          :   max. optcycles                   255          :
          :   ANC micro-cycles                  20          :
          :   degrees of freedom               147          :
          :.................................................:
          :   RF solver                   davidson          :
          :   write xtbopt.log                true          :
          :   linear?                        false          :
          :   energy convergence         0.1000000E-05 Eh   :
          :   grad. convergence          0.8000000E-03 Eh/α :
          :   maxmium RF displ.          1.0000000          :
          :   Hlow (freq-cutoff)         0.1000000E-01      :
          :   Hmax (freq-cutoff)         5.0000000          :
          :   S6 in model hess.         20.0000000          :
          ...................................................

generating ANC from exact Hessian ...
Using Lindh-Hessian (1995)
 Shifting diagonal of input Hessian by    9.8577741384704761E-003
 Lowest  eigenvalues of input Hessian
    0.000000    0.000000    0.000000    0.000000    0.000000    0.000000
    0.010000    0.010069    0.010432    0.010733    0.011256    0.011566
    0.012207    0.012667    0.012862    0.013619    0.014477    0.014671
 Highest eigenvalues
   13.195597   16.108402   19.756079   22.337313   24.547503  145.895160


........................................................................
.............................. CYCLE    1 ..............................
........................................................................

 iter      E             dE          RMSdq      gap      omega  full diag
   1    -60.8831786 -0.608832E+02  0.442E-05    0.09       0.0  T
   2    -60.8831786  0.791502E-09  0.119E-04    0.09     117.4  T
   3    -60.8831786 -0.168519E-09  0.108E-04    0.09     130.2  T
     SCC iter.                  ...        0 min,  0.037 sec
     gradient                   ...        0 min,  0.060 sec
 * total energy  :   -19.9846058 Eh     change        0.3061515E-09 Eh
   gradient norm :   114.5961721 Eh/α   predicted     0.0000000E+00 (-100.00%)
   displ. norm   :     0.9790470 α      lambda       -0.1121898E+03
   maximum displ.:     0.8017377 α      in ANC's #144, #141, #137, ...

........................................................................
.............................. CYCLE    2 ..............................
........................................................................

 iter      E             dE          RMSdq      gap      omega  full diag
   1    -60.3694181 -0.603694E+02  0.289E+00    0.27       0.0  T
   2    -60.5580663 -0.188648E+00  0.180E+00    1.49       1.0  T
   3    -60.6723425 -0.114276E+00  0.930E-01    0.39       1.0  T
   4    -60.6766873 -0.434476E-02  0.624E-01    0.43       1.0  T
   5    -60.6768989 -0.211616E-03  0.485E-01    0.40       1.0  T
   6    -60.6782773 -0.137836E-02  0.368E-01    0.51       1.0  T
   7    -60.6793231 -0.104580E-02  0.153E-01    0.46       1.0  T
   8    -60.6794634 -0.140353E-03  0.101E-01    0.51       1.0  T
   9    -60.6795651 -0.101705E-03  0.445E-02    0.49       1.0  T
  10    -60.6796038 -0.386936E-04  0.145E-02    0.50       1.0  T
  11    -60.6796068 -0.301689E-05  0.727E-03    0.50       1.9  T
  12    -60.6796077 -0.847947E-06  0.287E-03    0.50       4.9  T
  13    -60.6796077 -0.251855E-07  0.179E-03    0.50       7.8  T
  14    -60.6796078 -0.762608E-07  0.713E-04    0.50      19.6  T
  15    -60.6796078 -0.639077E-08  0.352E-04    0.50      39.8  T
     SCC iter.                  ...        0 min,  0.182 sec
     gradient                   ...        0 min,  0.105 sec
 * total energy  :   -54.4460452 Eh     change       -0.3446144E+02 Eh
   gradient norm :    13.6183186 Eh/α   predicted    -0.1098679E+03 ( 218.81%)
   displ. norm   :     0.8371249 α      lambda       -0.1112987E+02
   maximum displ.:     0.4861088 α      in ANC's #140, #139, #141, ...

........................................................................
.............................. CYCLE    3 ..............................
........................................................................

 iter      E             dE          RMSdq      gap      omega  full diag
   1    -60.9091227 -0.609091E+02  0.276E+00    0.69       0.0  T
   2    -60.7842486  0.124874E+00  0.295E+00    0.42       1.0  T
   3    -61.0026556 -0.218407E+00  0.201E+00    1.27       1.0  T
   4    -61.0798313 -0.771757E-01  0.150E+00    0.23       1.0  T
   5    -60.9295766  0.150255E+00  0.200E+00    0.13       1.0  T
   6    -61.0470791 -0.117502E+00  0.142E+00    0.69       1.0  T
   7    -61.0497163 -0.263722E-02  0.122E+00    0.60       1.0  T
   8    -61.0649138 -0.151975E-01  0.104E+00    0.31       1.0  T
   9    -61.0811733 -0.162594E-01  0.831E-01    0.17       1.0  T
  10    -61.1156854 -0.345122E-01  0.115E-01    0.06       1.0  T
  11    -61.1156957 -0.102507E-04  0.103E-01    0.04       1.0  T
  12    -61.1161996 -0.503954E-03  0.278E-02    0.05       1.0  T
  13    -61.1116311  0.456850E-02  0.289E-01    0.04       1.0  T
  14    -61.1150565 -0.342538E-02  0.145E-01    0.06       1.0  T
  15    -61.1159856 -0.929064E-03  0.644E-02    0.06       1.0  T
  16    -61.1160195 -0.339110E-04  0.590E-02    0.06       1.0  T
  17    -61.1162100 -0.190479E-03  0.218E-03    0.05       6.4  T
  18    -61.1162101 -0.154842E-06  0.134E-03    0.05      10.5  T
  19    -61.1162101 -0.380494E-08  0.128E-03    0.05      11.0  T
  20    -61.1162102 -0.528211E-07  0.826E-04    0.05      17.0  T
  21    -61.1162101  0.128727E-07  0.954E-04    0.05      14.7  T
     SCC iter.                  ...        0 min,  0.344 sec
     gradient                   ...        0 min,  0.094 sec
 * total energy  :   -58.1929963 Eh     change       -0.3746951E+01 Eh
   gradient norm :     6.8252711 Eh/α   predicted    -0.9464720E+01 ( 152.60%)
   displ. norm   :     0.6209520 α      lambda       -0.2662321E+01
   maximum displ.:     0.3616135 α      in ANC's #137, #138, #141, ...

........................................................................
.............................. CYCLE    4 ..............................
........................................................................

 iter      E             dE          RMSdq      gap      omega  full diag
   1    -61.2487404 -0.612487E+02  0.116E+00    0.51       0.0  T
   2    -60.8834126  0.365328E+00  0.270E+00    0.92       1.0  T
   3    -61.2647469 -0.381334E+00  0.820E-01    0.29       1.0  T
   4    -61.2759249 -0.111780E-01  0.593E-01    0.06       1.0  T
   5    -61.2730837  0.284121E-02  0.628E-01    0.21       1.0  T
   6    -61.2900412 -0.169575E-01  0.256E-01    0.08       1.0  T
   7    -61.2935632 -0.352201E-02  0.841E-02    0.10       1.0  T
   8    -61.2938592 -0.296021E-03  0.210E-02    0.09       1.0  T
   9    -61.2938751 -0.158705E-04  0.873E-03    0.09       1.6  T
  10    -61.2938601  0.150174E-04  0.172E-02    0.09       1.0  T
  11    -61.2938753 -0.151796E-04  0.432E-03    0.09       3.2  T
  12    -61.2938761 -0.805067E-06  0.925E-04    0.09      15.1  T
  13    -61.2938761  0.919292E-08  0.539E-04    0.09      26.0  T
     SCC iter.                  ...        0 min,  0.180 sec
     gradient                   ...        0 min,  0.066 sec
 * total energy  :   -58.8910306 Eh     change       -0.6980342E+00 Eh
   gradient norm :     5.6921207 Eh/α   predicted    -0.1844425E+01 ( 164.23%)
   displ. norm   :     0.5088193 α      lambda       -0.1119834E+01
   maximum displ.:     0.1654028 α      in ANC's #113, #138, #144, ...

........................................................................
.............................. CYCLE    5 ..............................
........................................................................

 iter      E             dE          RMSdq      gap      omega  full diag
   1    -61.4818616 -0.614819E+02  0.880E-01    0.57       0.0  T
   2    -61.0402734  0.441588E+00  0.283E+00    0.73       1.0  T
   3    -61.4896081 -0.449335E+00  0.682E-01    0.35       1.0  T
   4    -61.5022887 -0.126806E-01  0.396E-01    0.16       1.0  T
   5    -61.4958155  0.647322E-02  0.473E-01    0.07       1.0  T
   6    -61.5021692 -0.635377E-02  0.349E-01    0.16       1.0  T
   7    -61.5083389 -0.616971E-02  0.647E-02    0.11       1.0  T
   8    -61.5084522 -0.113295E-03  0.409E-02    0.11       1.0  T
   9    -61.5085164 -0.641799E-04  0.193E-02    0.11       1.0  T
  10    -61.5085351 -0.186610E-04  0.360E-03    0.11       3.9  T
  11    -61.5085356 -0.502355E-06  0.117E-03    0.11      12.0  T
  12    -61.5085356 -0.355341E-07  0.475E-04    0.11      29.5  T
  13    -61.5085356  0.318556E-07  0.876E-04    0.11      16.0  T
     SCC iter.                  ...        0 min,  0.229 sec
     gradient                   ...        0 min,  0.095 sec
 * total energy  :   -59.7953884 Eh     change       -0.9043579E+00 Eh
   gradient norm :     3.3123267 Eh/α   predicted    -0.7048805E+00 ( -22.06%)
   displ. norm   :     0.6158007 α      lambda       -0.9238703E+00
   maximum displ.:     0.2232589 α      in ANC's #138, #136, #144, ...

........................................................................
.............................. CYCLE    6 ..............................
........................................................................

 iter      E             dE          RMSdq      gap      omega  full diag
   1    -61.7542181 -0.617542E+02  0.849E-01    0.70       0.0  T
   2    -61.2575034  0.496715E+00  0.294E+00    0.33       1.0  T
   3    -61.7580800 -0.500577E+00  0.639E-01    0.60       1.0  T
   4    -61.7617415 -0.366150E-02  0.509E-01    0.43       1.0  T
   5    -61.7638766 -0.213508E-02  0.416E-01    0.30       1.0  T
   6    -61.7673105 -0.343397E-02  0.286E-01    0.21       1.0  T
   7    -61.7701587 -0.284811E-02  0.141E-01    0.15       1.0  T
   8    -61.7709970 -0.838313E-03  0.338E-02    0.13       1.0  T
   9    -61.7707675  0.229497E-03  0.699E-02    0.14       1.0  T
  10    -61.7709769 -0.209471E-03  0.251E-02    0.12       1.0  T
  11    -61.7710077 -0.307768E-04  0.224E-03    0.13       6.3  T
  12    -61.7710073  0.463495E-06  0.330E-03    0.13       4.2  T
  13    -61.7710077 -0.462158E-06  0.998E-04    0.13      14.0  T
  14    -61.7710078 -0.389570E-07  0.302E-04    0.13      46.4  T
     SCC iter.                  ...        0 min,  0.279 sec
     gradient                   ...        0 min,  0.058 sec
 * total energy  :   -60.5385603 Eh     change       -0.7431719E+00 Eh
   gradient norm :     1.7362945 Eh/α   predicted    -0.6371083E+00 ( -14.27%)
   displ. norm   :     0.6945560 α      lambda       -0.6366422E+00
   maximum displ.:     0.2046245 α      in ANC's #138, #136, #113, ...

........................................................................
.............................. CYCLE    7 ..............................
........................................................................

 iter      E             dE          RMSdq      gap      omega  full diag
   1    -62.0021983 -0.620022E+02  0.719E-01    0.71       0.0  T
   2    -62.0036649 -0.146659E-02  0.487E-01    0.12       1.0  T
   3    -62.0057685 -0.210355E-02  0.410E-01    0.57       1.0  T
   4    -62.0092096 -0.344115E-02  0.200E-01    0.28       1.0  T
   5    -62.0082288  0.980786E-03  0.168E-01    0.14       1.0  T
   6    -62.0094621 -0.123324E-02  0.852E-02    0.25       1.0  T
   7    -62.0096549 -0.192805E-03  0.402E-02    0.22       1.0  T
   8    -62.0096696 -0.147084E-04  0.273E-02    0.19       1.0  T
   9    -62.0096816 -0.119921E-04  0.188E-02    0.20       1.0  T
  10    -62.0096942 -0.126516E-04  0.424E-03    0.20       3.3  T
  11    -62.0096941  0.129056E-06  0.340E-03    0.20       4.1  T
  12    -62.0096945 -0.416516E-06  0.874E-04    0.20      16.0  T
  13    -62.0096946 -0.242569E-07  0.245E-04    0.21      57.3  T
     SCC iter.                  ...        0 min,  0.201 sec
     gradient                   ...        0 min,  0.053 sec
 * total energy  :   -61.0580827 Eh     change       -0.5195224E+00 Eh
   gradient norm :     0.9321283 Eh/α   predicted    -0.4718836E+00 (  -9.17%)
   displ. norm   :     0.7491733 α      lambda       -0.4332613E+00
   maximum displ.:     0.2035564 α      in ANC's #39, #136, #59, ...

........................................................................
.............................. CYCLE    8 ..............................
........................................................................

 iter      E             dE          RMSdq      gap      omega  full diag
   1    -62.2220042 -0.622220E+02  0.640E-01    0.78       0.0  T
   2    -62.2253953 -0.339110E-02  0.327E-01    0.56       1.0  T
   3    -62.2255051 -0.109846E-03  0.198E-01    0.56       1.0  T
   4    -62.2256807 -0.175594E-03  0.104E-01    0.49       1.0  T
   5    -62.2258524 -0.171659E-03  0.504E-02    0.54       1.0  T
   6    -62.2258741 -0.216943E-04  0.192E-02    0.53       1.0  T
   7    -62.2258747 -0.648667E-06  0.855E-03    0.53       1.6  T
   8    -62.2258757 -0.971205E-06  0.433E-03    0.53       3.2  T
   9    -62.2258758 -0.844384E-07  0.222E-03    0.53       6.3  T
  10    -62.2258758 -0.137872E-07  0.121E-03    0.53      11.5  T
  11    -62.2258758 -0.733946E-08  0.442E-04    0.53      31.6  T
  12    -62.2258758 -0.136524E-08  0.131E-04    0.53     106.9  T
     SCC iter.                  ...        0 min,  0.219 sec
     gradient                   ...        0 min,  0.071 sec
 * total energy  :   -61.4214910 Eh     change       -0.3634082E+00 Eh
   gradient norm :     0.5299879 Eh/α   predicted    -0.3382180E+00 (  -6.93%)
   displ. norm   :     0.8132760 α      lambda       -0.3166110E+00
   maximum displ.:     0.2641759 α      in ANC's #33, #39, #59, ...

........................................................................
.............................. CYCLE    9 ..............................
........................................................................

 iter      E             dE          RMSdq      gap      omega  full diag
   1    -62.4193096 -0.624193E+02  0.691E-01    1.11       0.0  T
   2    -62.4212801 -0.197045E-02  0.342E-01    0.96       1.0  T
   3    -62.4208939  0.386127E-03  0.203E-01    1.02       1.0  T
   4    -62.4218947 -0.100076E-02  0.724E-02    0.94       1.0  T
   5    -62.4219464 -0.517222E-04  0.343E-02    0.97       1.0  T
   6    -62.4219469 -0.447272E-06  0.149E-02    0.97       1.0  T
   7    -62.4219494 -0.258025E-05  0.550E-03    0.97       2.5  T
   8    -62.4219498 -0.404789E-06  0.165E-03    0.97       8.5  T
   9    -62.4219499 -0.115971E-07  0.440E-04    0.97      31.8  T
  10    -62.4219499 -0.941434E-09  0.208E-04    0.97      67.2  T
     SCC iter.                  ...        0 min,  0.116 sec
     gradient                   ...        0 min,  0.101 sec
 * total energy  :   -61.6966428 Eh     change       -0.2751518E+00 Eh
   gradient norm :     0.3470512 Eh/α   predicted    -0.2630127E+00 (  -4.41%)
   displ. norm   :     0.8572441 α      lambda       -0.2511612E+00
   maximum displ.:     0.3231247 α      in ANC's #33, #39, #24, ...

........................................................................
.............................. CYCLE   10 ..............................
........................................................................

 iter      E             dE          RMSdq      gap      omega  full diag
   1    -62.6012433 -0.626012E+02  0.680E-01    1.63       0.0  T
   2    -62.6027254 -0.148209E-02  0.368E-01    1.43       1.0  T
   3    -62.6024470  0.278439E-03  0.213E-01    1.53       1.0  T
   4    -62.6035463 -0.109930E-02  0.554E-02    1.44       1.0  T
   5    -62.6035631 -0.168116E-04  0.281E-02    1.46       1.0  T
   6    -62.6035636 -0.516043E-06  0.130E-02    1.46       1.1  T
   7    -62.6035653 -0.170409E-05  0.484E-03    1.46       2.9  T
   8    -62.6035656 -0.255730E-06  0.220E-03    1.46       6.4  T
   9    -62.6035656 -0.202035E-07  0.918E-04    1.46      15.3  T
  10    -62.6035656 -0.332376E-08  0.448E-04    1.46      31.2  T
     SCC iter.                  ...        0 min,  0.138 sec
     gradient                   ...        0 min,  0.062 sec
 * total energy  :   -61.9231847 Eh     change       -0.2265418E+00 Eh
   gradient norm :     0.2833150 Eh/α   predicted    -0.2178661E+00 (  -3.83%)
   displ. norm   :     0.8834474 α      lambda       -0.2173793E+00
   maximum displ.:     0.3604183 α      in ANC's #33, #39, #24, ...

........................................................................
.............................. CYCLE   11 ..............................
........................................................................

 iter      E             dE          RMSdq      gap      omega  full diag
   1    -62.7765783 -0.627766E+02  0.689E-01    1.62       0.0  T
   2    -62.7780192 -0.144084E-02  0.389E-01    1.38       1.0  T
   3    -62.7779286  0.905498E-04  0.172E-01    1.53       1.0  T
   4    -62.7784109 -0.482275E-03  0.457E-02    1.42       1.0  T
   5    -62.7784246 -0.137443E-04  0.219E-02    1.43       1.0  T
   6    -62.7784254 -0.741312E-06  0.921E-03    1.43       1.5  T
   7    -62.7784258 -0.393246E-06  0.368E-03    1.43       3.8  T
   8    -62.7784258 -0.632721E-07  0.205E-03    1.43       6.8  T
   9    -62.7784258 -0.223822E-07  0.832E-04    1.43      16.8  T
  10    -62.7784258 -0.421217E-08  0.350E-04    1.43      40.0  T
     SCC iter.                  ...        0 min,  0.129 sec
     gradient                   ...        0 min,  0.058 sec
 * total energy  :   -62.1233694 Eh     change       -0.2001847E+00 Eh
   gradient norm :     0.2742222 Eh/α   predicted    -0.1935200E+00 (  -3.33%)
   displ. norm   :     0.8990366 α      lambda       -0.1978024E+00
   maximum displ.:     0.3845329 α      in ANC's #33, #24, #59, ...

........................................................................
.............................. CYCLE   12 ..............................
........................................................................

 iter      E             dE          RMSdq      gap      omega  full diag
   1    -62.9513302 -0.629513E+02  0.699E-01    1.53       0.0  T
   2    -62.9522257 -0.895475E-03  0.406E-01    1.34       1.0  T
   3    -62.9522471 -0.214515E-04  0.854E-02    1.34       1.0  T
   4    -62.9523104 -0.632751E-04  0.281E-02    1.31       1.0  T
   5    -62.9523178 -0.739794E-05  0.151E-02    1.31       1.0  T
   6    -62.9523183 -0.455418E-06  0.557E-03    1.31       2.5  T
   7    -62.9523183 -0.762369E-07  0.260E-03    1.31       5.4  T
   8    -62.9523184 -0.303139E-07  0.123E-03    1.31      11.4  T
   9    -62.9523184 -0.398223E-08  0.384E-04    1.31      36.5  T
  10    -62.9523184 -0.519734E-09  0.174E-04    1.31      80.6  T
     SCC iter.                  ...        0 min,  0.179 sec
     gradient                   ...        0 min,  0.066 sec
 * total energy  :   -62.3073789 Eh     change       -0.1840096E+00 Eh
   gradient norm :     0.2820951 Eh/α   predicted    -0.1788403E+00 (  -2.81%)
   displ. norm   :     0.8974333 α      lambda       -0.1827077E+00
   maximum displ.:     0.3919300 α      in ANC's #33, #24, #59, ...

........................................................................
.............................. CYCLE   13 ..............................
........................................................................

 iter      E             dE          RMSdq      gap      omega  full diag
   1    -63.1240485 -0.631240E+02  0.660E-01    1.60       0.0  T
   2    -63.1246832 -0.634628E-03  0.376E-01    1.60       1.0  T
   3    -63.1246976 -0.143975E-04  0.840E-02    1.52       1.0  T
   4    -63.1247626 -0.650183E-04  0.263E-02    1.53       1.0  T
   5    -63.1247656 -0.304435E-05  0.178E-02    1.53       1.0  T
   6    -63.1247667 -0.101431E-05  0.672E-03    1.53       2.1  T
   7    -63.1247668 -0.104479E-06  0.273E-03    1.53       5.1  T
   8    -63.1247668 -0.231903E-07  0.122E-03    1.53      11.5  T
   9    -63.1247668 -0.313011E-08  0.431E-04    1.53      32.5  T
  10    -63.1247668 -0.577856E-09  0.210E-04    1.53      66.7  T
     SCC iter.                  ...        0 min,  0.081 sec
     gradient                   ...        0 min,  0.093 sec
 * total energy  :   -62.4743461 Eh     change       -0.1669672E+00 Eh
   gradient norm :     0.2736758 Eh/α   predicted    -0.1649296E+00 (  -1.22%)
   displ. norm   :     0.8670416 α      lambda       -0.1590324E+00
   maximum displ.:     0.3896558 α      in ANC's #33, #24, #59, ...

........................................................................
.............................. CYCLE   14 ..............................
........................................................................

 iter      E             dE          RMSdq      gap      omega  full diag
   1    -63.2811315 -0.632811E+02  0.593E-01    1.95       0.0  T
   2    -63.2821838 -0.105235E-02  0.312E-01    2.10       1.0  T
   3    -63.2822237 -0.398679E-04  0.122E-01    2.04       1.0  T
   4    -63.2822773 -0.536252E-04  0.417E-02    2.06       1.0  T
   5    -63.2822829 -0.561958E-05  0.304E-02    2.05       1.0  T
   6    -63.2822875 -0.461497E-05  0.870E-03    2.05       1.6  T
   7    -63.2822878 -0.223204E-06  0.307E-03    2.05       4.6  T
   8    -63.2822878 -0.364367E-07  0.141E-03    2.05       9.9  T
   9    -63.2822878 -0.671378E-08  0.560E-04    2.05      25.0  T
  10    -63.2822878 -0.103589E-08  0.244E-04    2.05      57.3  T
     SCC iter.                  ...        0 min,  0.164 sec
     gradient                   ...        0 min,  0.090 sec
 * total energy  :   -62.6146723 Eh     change       -0.1403262E+00 Eh
   gradient norm :     0.2445192 Eh/α   predicted    -0.1392936E+00 (  -0.74%)
   displ. norm   :     0.8320019 α      lambda       -0.1319130E+00
   maximum displ.:     0.3796839 α      in ANC's #33, #24, #59, ...

........................................................................
.............................. CYCLE   15 ..............................
........................................................................

 iter      E             dE          RMSdq      gap      omega  full diag
   1    -63.4080318 -0.634080E+02  0.526E-01    2.54       0.0  T
   2    -63.4091906 -0.115880E-02  0.250E-01    2.71       1.0  T
   3    -63.4092446 -0.540016E-04  0.115E-01    2.68       1.0  T
   4    -63.4092699 -0.253403E-04  0.390E-02    2.69       1.0  T
   5    -63.4092824 -0.125234E-04  0.276E-02    2.68       1.0  T
   6    -63.4092864 -0.391332E-05  0.766E-03    2.69       1.8  T
   7    -63.4092866 -0.268976E-06  0.297E-03    2.69       4.7  T
   8    -63.4092867 -0.391702E-07  0.112E-03    2.69      12.5  T
   9    -63.4092867 -0.348617E-08  0.376E-04    2.69      37.2  T
  10    -63.4092867 -0.471474E-09  0.171E-04    2.69      82.0  T
     SCC iter.                  ...        0 min,  0.205 sec
     gradient                   ...        0 min,  0.102 sec
 * total energy  :   -62.7293755 Eh     change       -0.1147032E+00 Eh
   gradient norm :     0.2041747 Eh/α   predicted    -0.1116135E+00 (  -2.69%)
   displ. norm   :     0.8118062 α      lambda       -0.1065408E+00
   maximum displ.:     0.3626424 α      in ANC's #33, #24, #66, ...

........................................................................
.............................. CYCLE   16 ..............................
........................................................................

 iter      E             dE          RMSdq      gap      omega  full diag
   1    -63.4994883 -0.634995E+02  0.410E-01    3.13       0.0  T
   2    -63.5004938 -0.100544E-02  0.188E-01    3.28       1.0  T
   3    -63.5005382 -0.443844E-04  0.926E-02    3.25       1.0  T
   4    -63.5005523 -0.141014E-04  0.296E-02    3.26       1.0  T
   5    -63.5005669 -0.146528E-04  0.164E-02    3.25       1.0  T
   6    -63.5005680 -0.108213E-05  0.544E-03    3.26       2.6  T
   7    -63.5005682 -0.163300E-06  0.264E-03    3.26       5.3  T
   8    -63.5005682 -0.309661E-07  0.993E-04    3.26      14.1  T
   9    -63.5005682 -0.208405E-08  0.346E-04    3.26      40.4  T
     SCC iter.                  ...        0 min,  0.158 sec
     gradient                   ...        0 min,  0.062 sec
 * total energy  :   -62.8200503 Eh     change       -0.9067474E-01 Eh
   gradient norm :     0.1805874 Eh/α   predicted    -0.8837732E-01 (  -2.53%)
   displ. norm   :     0.7886038 α      lambda       -0.8462951E-01
   maximum displ.:     0.3472986 α      in ANC's #33, #24, #66, ...

........................................................................
.............................. CYCLE   17 ..............................
........................................................................

 iter      E             dE          RMSdq      gap      omega  full diag
   1    -63.5613324 -0.635613E+02  0.342E-01    3.53       0.0  T
   2    -63.5618366 -0.504206E-03  0.184E-01    3.62       1.0  T
   3    -63.5618545 -0.178575E-04  0.757E-02    3.58       1.0  T
   4    -63.5618722 -0.176462E-04  0.234E-02    3.60       1.0  T
   5    -63.5618827 -0.105819E-04  0.969E-03    3.59       1.4  T
   6    -63.5618830 -0.235226E-06  0.315E-03    3.59       4.4  T
   7    -63.5618830 -0.286429E-07  0.175E-03    3.60       8.0  T
   8    -63.5618830 -0.186607E-07  0.752E-04    3.59      18.6  T
   9    -63.5618830 -0.123342E-08  0.342E-04    3.59      40.9  T
     SCC iter.                  ...        0 min,  0.078 sec
     gradient                   ...        0 min,  0.104 sec
 * total energy  :   -62.8923790 Eh     change       -0.7232869E-01 Eh
   gradient norm :     0.1519965 Eh/α   predicted    -0.6863024E-01 (  -5.11%)
   displ. norm   :     0.7648995 α      lambda       -0.6508317E-01
   maximum displ.:     0.3244485 α      in ANC's #33, #24, #66, ...

........................................................................
.............................. CYCLE   18 ..............................
........................................................................

 iter      E             dE          RMSdq      gap      omega  full diag
   1    -63.6097723 -0.636098E+02  0.342E-01    3.71       0.0  T
   2    -63.6099812 -0.208926E-03  0.195E-01    3.76       1.0  T
   3    -63.6099716  0.959395E-05  0.573E-02    3.72       1.0  T
   4    -63.6100054 -0.338116E-04  0.191E-02    3.75       1.0  T
   5    -63.6100115 -0.608304E-05  0.792E-03    3.74       1.8  T
   6    -63.6100116 -0.100221E-06  0.229E-03    3.74       6.1  T
   7    -63.6100116 -0.122738E-07  0.109E-03    3.74      12.8  T
   8    -63.6100116 -0.829693E-08  0.479E-04    3.74      29.2  T
   9    -63.6100116 -0.520458E-09  0.221E-04    3.74      63.4  T
     SCC iter.                  ...        0 min,  0.129 sec
     gradient                   ...        0 min,  0.065 sec
 * total energy  :   -62.9464714 Eh     change       -0.5409240E-01 Eh
   gradient norm :     0.1284638 Eh/α   predicted    -0.5158078E-01 (  -4.64%)
   displ. norm   :     0.7310233 α      lambda       -0.4521653E-01
   maximum displ.:     0.2952071 α      in ANC's #33, #24, #13, ...

........................................................................
.............................. CYCLE   19 ..............................
........................................................................

 iter      E             dE          RMSdq      gap      omega  full diag
   1    -63.6480667 -0.636481E+02  0.303E-01    3.73       0.0  T
   2    -63.6481855 -0.118794E-03  0.172E-01    3.77       1.0  T
   3    -63.6481648  0.206750E-04  0.518E-02    3.74       1.0  T
   4    -63.6482068 -0.419039E-04  0.160E-02    3.76       1.0  T
   5    -63.6482102 -0.340571E-05  0.675E-03    3.76       2.1  T
   6    -63.6482103 -0.115207E-06  0.197E-03    3.76       7.1  T
   7    -63.6482103 -0.185936E-07  0.828E-04    3.76      16.9  T
   8    -63.6482103 -0.268604E-08  0.431E-04    3.76      32.5  T
     SCC iter.                  ...        0 min,  0.241 sec
     gradient                   ...        0 min,  0.092 sec
 * total energy  :   -62.9833467 Eh     change       -0.3687535E-01 Eh
   gradient norm :     0.1156589 Eh/α   predicted    -0.3469004E-01 (  -5.93%)
   displ. norm   :     0.6992872 α      lambda       -0.3188424E-01
   maximum displ.:     0.2918409 α      in ANC's #24, #33, #13, ...

........................................................................
.............................. CYCLE   20 ..............................
........................................................................

 iter      E             dE          RMSdq      gap      omega  full diag
   1    -63.6833422 -0.636833E+02  0.263E-01    3.64       0.0  T
   2    -63.6834558 -0.113628E-03  0.143E-01    3.68       1.0  T
   3    -63.6834344  0.214091E-04  0.552E-02    3.64       1.0  T
   4    -63.6834806 -0.462377E-04  0.147E-02    3.67       1.0  T
   5    -63.6834827 -0.207986E-05  0.757E-03    3.66       1.9  T
   6    -63.6834829 -0.193349E-06  0.246E-03    3.66       5.7  T
   7    -63.6834830 -0.374862E-07  0.916E-04    3.67      15.3  T
   8    -63.6834830 -0.230449E-08  0.355E-04    3.67      39.5  T
     SCC iter.                  ...        0 min,  0.474 sec
     gradient                   ...        0 min,  0.104 sec
 * total energy  :   -63.0080946 Eh     change       -0.2474789E-01 Eh
   gradient norm :     0.1104825 Eh/α   predicted    -0.2373795E-01 (  -4.08%)
   displ. norm   :     0.7994974 α      lambda       -0.3173420E-01
   maximum displ.:     0.3457065 α      in ANC's #13, #24, #33, ...
 * RMSD in coord.:     1.5835616 α      energy gain  -0.4302349E+02 Eh

generating ANC from exact Hessian ...
Using Lindh-Hessian (1995)
 Shifting diagonal of input Hessian by    1.1827657530430557E-002
 Lowest  eigenvalues of input Hessian
    0.010000    0.010097    0.010788    0.011206    0.011492    0.011567
    0.011652    0.011688    0.011740    0.000000    0.000000    0.000000
    0.000000    0.000000    0.000000    0.011887    0.011951    0.012240
 Highest eigenvalues
    1.392230    1.410502    1.410502    1.422739    1.464689    1.482416


........................................................................
.............................. CYCLE   21 ..............................
........................................................................

 iter      E             dE          RMSdq      gap      omega  full diag
   1    -63.6869369 -0.636869E+02  0.315E-01    3.41       0.0  T
   2    -63.6871821 -0.245228E-03  0.173E-01    3.45       1.0  T
   3    -63.6871595  0.225877E-04  0.629E-02    3.42       1.0  T
   4    -63.6872069 -0.473898E-04  0.183E-02    3.45       1.0  T
   5    -63.6872118 -0.482292E-05  0.108E-02    3.44       1.3  T
   6    -63.6872121 -0.334872E-06  0.333E-03    3.44       4.2  T
   7    -63.6872121 -0.522613E-07  0.135E-03    3.44      10.4  T
   8    -63.6872122 -0.794300E-08  0.453E-04    3.44      30.9  T
   9    -63.6872122 -0.894715E-09  0.146E-04    3.44      95.6  T
     SCC iter.                  ...        0 min,  1.013 sec
     gradient                   ...        0 min,  0.086 sec
 * total energy  :   -63.0229412 Eh     change       -0.1484661E-01 Eh
   gradient norm :     0.1259151 Eh/α   predicted     0.0000000E+00 (-100.00%)
   displ. norm   :     0.5555684 α      lambda       -0.4384429E-01
   maximum displ.:     0.2262830 α      in ANC's #35, #2, #45, ...

........................................................................
.............................. CYCLE   22 ..............................
........................................................................

 iter      E             dE          RMSdq      gap      omega  full diag
   1    -63.7342815 -0.637343E+02  0.273E-01    3.64       0.0  T
   2    -63.7344195 -0.138045E-03  0.159E-01    3.67       1.0  T
   3    -63.7344299 -0.103973E-04  0.494E-02    3.65       1.0  T
   4    -63.7344405 -0.106027E-04  0.285E-02    3.67       1.0  T
   5    -63.7344407 -0.196448E-06  0.163E-02    3.65       1.0  T
   6    -63.7344436 -0.293742E-05  0.315E-03    3.66       4.5  T
   7    -63.7344437 -0.692563E-07  0.130E-03    3.66      10.7  T
   8    -63.7344437 -0.723109E-08  0.495E-04    3.66      28.3  T
   9    -63.7344437 -0.128772E-08  0.215E-04    3.66      65.2  T
     SCC iter.                  ...        0 min,  0.884 sec
     gradient                   ...        0 min,  0.091 sec
 * total energy  :   -63.0566231 Eh     change       -0.3368185E-01 Eh
   gradient norm :     0.0661326 Eh/α   predicted    -0.2869283E-01 ( -14.81%)
   displ. norm   :     0.6603218 α      lambda       -0.2663900E-01
   maximum displ.:     0.2973954 α      in ANC's #35, #45, #2, ...

........................................................................
.............................. CYCLE   23 ..............................
........................................................................

 iter      E             dE          RMSdq      gap      omega  full diag
   1    -63.7645341 -0.637645E+02  0.236E-01    3.82       0.0  T
   2    -63.7646337 -0.995973E-04  0.140E-01    3.85       1.0  T
   3    -63.7646505 -0.167507E-04  0.539E-02    3.83       1.0  T
   4    -63.7646569 -0.645687E-05  0.314E-02    3.85       1.0  T
   5    -63.7646610 -0.408322E-05  0.148E-02    3.84       1.0  T
   6    -63.7646630 -0.195606E-05  0.371E-03    3.84       3.8  T
   7    -63.7646631 -0.116921E-06  0.129E-03    3.84      10.8  T
   8    -63.7646631 -0.913372E-08  0.494E-04    3.84      28.3  T
   9    -63.7646631 -0.903725E-09  0.199E-04    3.84      70.3  T
     SCC iter.                  ...        0 min,  0.859 sec
     gradient                   ...        0 min,  0.096 sec
 * total energy  :   -63.0766460 Eh     change       -0.2002296E-01 Eh
   gradient norm :     0.0293001 Eh/α   predicted    -0.1912715E-01 (  -4.47%)
   displ. norm   :     0.7555162 α      lambda       -0.1679534E-01
   maximum displ.:     0.3840907 α      in ANC's #35, #2, #45, ...

........................................................................
.............................. CYCLE   24 ..............................
........................................................................

 iter      E             dE          RMSdq      gap      omega  full diag
   1    -63.7727965 -0.637728E+02  0.170E-01    3.92       0.0  T
   2    -63.7728523 -0.558372E-04  0.104E-01    3.93       1.0  T
   3    -63.7728624 -0.100633E-04  0.325E-02    3.93       1.0  T
   4    -63.7728641 -0.170609E-05  0.177E-02    3.92       1.0  T
   5    -63.7728645 -0.354929E-06  0.632E-03    3.93       2.2  T
   6    -63.7728647 -0.237079E-06  0.252E-03    3.92       5.6  T
   7    -63.7728648 -0.941847E-07  0.770E-04    3.92      18.2  T
   8    -63.7728648 -0.482074E-08  0.293E-04    3.92      47.7  T
     SCC iter.                  ...        0 min,  0.340 sec
     gradient                   ...        0 min,  0.104 sec
 * total energy  :   -63.0911785 Eh     change       -0.1453248E-01 Eh
   gradient norm :     0.0267021 Eh/α   predicted    -0.1319113E-01 (  -9.23%)
   displ. norm   :     0.8354651 α      lambda       -0.1498181E-01
   maximum displ.:     0.4225065 α      in ANC's #35, #5, #45, ...

........................................................................
.............................. CYCLE   25 ..............................
........................................................................

 iter      E             dE          RMSdq      gap      omega  full diag
   1    -63.7803744 -0.637804E+02  0.164E-01    3.97       0.0  T
   2    -63.7804397 -0.652940E-04  0.101E-01    3.96       1.0  T
   3    -63.7804382  0.145905E-05  0.300E-02    3.98       1.0  T
   4    -63.7804483 -0.100860E-04  0.152E-02    3.96       1.0  T
   5    -63.7804508 -0.245476E-05  0.762E-03    3.97       1.8  T
   6    -63.7804508 -0.357956E-07  0.260E-03    3.97       5.4  T
   7    -63.7804508 -0.450546E-07  0.662E-04    3.97      21.2  T
   8    -63.7804508 -0.130470E-08  0.275E-04    3.97      50.9  T
     SCC iter.                  ...        0 min,  0.255 sec
     gradient                   ...        0 min,  0.088 sec
 * total energy  :   -63.1044296 Eh     change       -0.1325113E-01 Eh
   gradient norm :     0.0268162 Eh/α   predicted    -0.1271964E-01 (  -4.01%)
   displ. norm   :     0.8560684 α      lambda       -0.1275783E-01
   maximum displ.:     0.4370953 α      in ANC's #5, #35, #2, ...

........................................................................
.............................. CYCLE   26 ..............................
........................................................................

 iter      E             dE          RMSdq      gap      omega  full diag
   1    -63.7892470 -0.637892E+02  0.148E-01    4.03       0.0  T
   2    -63.7893213 -0.742927E-04  0.915E-02    3.99       1.0  T
   3    -63.7893060  0.152238E-04  0.382E-02    4.02       1.0  T
   4    -63.7893362 -0.301216E-04  0.113E-02    4.00       1.2  T
   5    -63.7893366 -0.437837E-06  0.517E-03    4.00       2.7  T
   6    -63.7893366 -0.307495E-07  0.198E-03    4.00       7.1  T
   7    -63.7893366 -0.101536E-07  0.634E-04    4.00      22.1  T
   8    -63.7893366 -0.176873E-08  0.245E-04    4.00      57.3  T
     SCC iter.                  ...        0 min,  0.182 sec
     gradient                   ...        0 min,  0.091 sec
 * total energy  :   -63.1158264 Eh     change       -0.1139678E-01 Eh
   gradient norm :     0.0213432 Eh/α   predicted    -0.1105373E-01 (  -3.01%)
   displ. norm   :     0.8728925 α      lambda       -0.1099826E-01
   maximum displ.:     0.5174004 α      in ANC's #5, #2, #35, ...

........................................................................
.............................. CYCLE   27 ..............................
........................................................................

 iter      E             dE          RMSdq      gap      omega  full diag
   1    -63.7991649 -0.637992E+02  0.159E-01    4.11       0.0  T
   2    -63.7992614 -0.964923E-04  0.947E-02    4.06       1.0  T
   3    -63.7992482  0.131806E-04  0.499E-02    4.09       1.0  T
   4    -63.7992818 -0.335080E-04  0.135E-02    4.07       1.0  T
   5    -63.7992825 -0.710335E-06  0.480E-03    4.07       2.9  T
   6    -63.7992825 -0.845881E-07  0.141E-03    4.07      10.0  T
   7    -63.7992826 -0.707350E-08  0.584E-04    4.07      24.0  T
   8    -63.7992826 -0.159128E-08  0.262E-04    4.07      53.4  T
     SCC iter.                  ...        0 min,  0.452 sec
     gradient                   ...        0 min,  0.064 sec
 * total energy  :   -63.1258122 Eh     change       -0.9985797E-02 Eh
   gradient norm :     0.0177275 Eh/α   predicted    -0.9689179E-02 (  -2.97%)
   displ. norm   :     0.8848649 α      lambda       -0.9852697E-02
   maximum displ.:     0.5682732 α      in ANC's #5, #2, #45, ...

........................................................................
.............................. CYCLE   28 ..............................
........................................................................

 iter      E             dE          RMSdq      gap      omega  full diag
   1    -63.8099623 -0.638100E+02  0.149E-01    4.21       0.0  T
   2    -63.8100461 -0.837985E-04  0.844E-02    4.16       1.0  T
   3    -63.8100381  0.797053E-05  0.503E-02    4.19       1.0  T
   4    -63.8100612 -0.231187E-04  0.169E-02    4.18       1.0  T
   5    -63.8100621 -0.847688E-06  0.442E-03    4.17       3.2  T
   6    -63.8100622 -0.106728E-06  0.104E-03    4.17      13.5  T
   7    -63.8100622 -0.642662E-08  0.383E-04    4.17      36.5  T
   8    -63.8100622 -0.580329E-09  0.224E-04    4.17      62.4  T
     SCC iter.                  ...        0 min,  0.155 sec
     gradient                   ...        0 min,  0.085 sec
 * total energy  :   -63.1348609 Eh     change       -0.9048725E-02 Eh
   gradient norm :     0.0161593 Eh/α   predicted    -0.8783607E-02 (  -2.93%)
   displ. norm   :     0.9007958 α      lambda       -0.9295736E-02
   maximum displ.:     0.6340064 α      in ANC's #5, #2, #45, ...

........................................................................
.............................. CYCLE   29 ..............................
........................................................................

 iter      E             dE          RMSdq      gap      omega  full diag
   1    -63.8122108 -0.638122E+02  0.195E-01    4.39       0.0  T
   2    -63.8123242 -0.113439E-03  0.110E-01    4.34       1.0  T
   3    -63.8123187  0.554152E-05  0.651E-02    4.37       1.0  T
   4    -63.8123434 -0.246698E-04  0.254E-02    4.35       1.0  T
   5    -63.8123447 -0.133351E-05  0.614E-03    4.35       2.3  T
   6    -63.8123449 -0.198050E-06  0.121E-03    4.35      11.6  T
   7    -63.8123449 -0.603741E-08  0.457E-04    4.35      30.7  T
   8    -63.8123449 -0.603499E-09  0.286E-04    4.35      49.0  T
     SCC iter.                  ...        0 min,  0.068 sec
     gradient                   ...        0 min,  0.053 sec
 * total energy  :   -63.1431461 Eh     change       -0.8285186E-02 Eh
   gradient norm :     0.0234183 Eh/α   predicted    -0.8419309E-02 (   1.62%)
   displ. norm   :     0.8994939 α      lambda       -0.9206127E-02
   maximum displ.:     0.6323425 α      in ANC's #5, #2, #45, ...

........................................................................
.............................. CYCLE   30 ..............................
........................................................................

 iter      E             dE          RMSdq      gap      omega  full diag
   1    -63.8272448 -0.638272E+02  0.134E-01    4.61       0.0  T
   2    -63.8273095 -0.646621E-04  0.776E-02    4.58       1.0  T
   3    -63.8273089  0.529932E-06  0.532E-02    4.60       1.0  T
   4    -63.8273185 -0.954578E-05  0.284E-02    4.59       1.0  T
   5    -63.8273197 -0.121354E-05  0.607E-03    4.59       2.3  T
   6    -63.8273200 -0.275678E-06  0.127E-03    4.58      11.0  T
   7    -63.8273200 -0.990740E-08  0.705E-04    4.58      19.9  T
   8    -63.8273200 -0.107826E-08  0.347E-04    4.58      40.3  T
     SCC iter.                  ...        0 min,  0.154 sec
     gradient                   ...        0 min,  0.066 sec
 * total energy  :   -63.1511215 Eh     change       -0.7975370E-02 Eh
   gradient norm :     0.0180114 Eh/α   predicted    -0.8327355E-02 (   4.41%)
   displ. norm   :     0.8884263 α      lambda       -0.7817419E-02
   maximum displ.:     0.6643236 α      in ANC's #5, #2, #36, ...

........................................................................
.............................. CYCLE   31 ..............................
........................................................................

 iter      E             dE          RMSdq      gap      omega  full diag
   1    -63.8294581 -0.638295E+02  0.163E-01    4.96       0.0  T
   2    -63.8295663 -0.108200E-03  0.935E-02    4.92       1.0  T
   3    -63.8295708 -0.447670E-05  0.664E-02    4.94       1.0  T
   4    -63.8295797 -0.889096E-05  0.381E-02    4.93       1.0  T
   5    -63.8295816 -0.193931E-05  0.824E-03    4.93       1.7  T
   6    -63.8295821 -0.418989E-06  0.144E-03    4.93       9.7  T
   7    -63.8295821 -0.150855E-07  0.725E-04    4.92      19.3  T
   8    -63.8295821 -0.116871E-08  0.395E-04    4.92      35.4  T
     SCC iter.                  ...        0 min,  0.141 sec
     gradient                   ...        0 min,  0.050 sec
 * total energy  :   -63.1581177 Eh     change       -0.6996237E-02 Eh
   gradient norm :     0.0125277 Eh/α   predicted    -0.6993862E-02 (  -0.03%)
   displ. norm   :     0.8754767 α      lambda       -0.6522743E-02
   maximum displ.:     0.6527894 α      in ANC's #5, #36, #21, ...

........................................................................
.............................. CYCLE   32 ..............................
........................................................................

 iter      E             dE          RMSdq      gap      omega  full diag
   1    -63.8343984 -0.638344E+02  0.142E-01    5.35       0.0  T
   2    -63.8345125 -0.114100E-03  0.810E-02    5.31       1.0  T
   3    -63.8345205 -0.800116E-05  0.640E-02    5.32       1.0  T
   4    -63.8345252 -0.474501E-05  0.453E-02    5.32       1.0  T
   5    -63.8345272 -0.192419E-05  0.984E-03    5.32       1.4  T
   6    -63.8345277 -0.559364E-06  0.152E-03    5.32       9.2  T
   7    -63.8345277 -0.199465E-07  0.800E-04    5.31      17.5  T
   8    -63.8345277 -0.112411E-08  0.385E-04    5.31      36.4  T
     SCC iter.                  ...        0 min,  0.092 sec
     gradient                   ...        0 min,  0.096 sec
 * total energy  :   -63.1637969 Eh     change       -0.5679135E-02 Eh
   gradient norm :     0.0102679 Eh/α   predicted    -0.5761092E-02 (   1.44%)
   displ. norm   :     0.8213488 α      lambda       -0.4817077E-02
   maximum displ.:     0.5859862 α      in ANC's #5, #36, #21, ...

........................................................................
.............................. CYCLE   33 ..............................
........................................................................

 iter      E             dE          RMSdq      gap      omega  full diag
   1    -63.8397153 -0.638397E+02  0.109E-01    5.70       0.0  T
   2    -63.8398011 -0.858769E-04  0.627E-02    5.66       1.0  T
   3    -63.8398087 -0.752190E-05  0.522E-02    5.67       1.0  T
   4    -63.8398108 -0.214818E-05  0.451E-02    5.67       1.0  T
   5    -63.8398120 -0.118155E-05  0.934E-03    5.66       1.5  T
   6    -63.8398125 -0.484250E-06  0.158E-03    5.66       8.9  T
   7    -63.8398125 -0.168862E-07  0.966E-04    5.66      14.5  T
   8    -63.8398125 -0.158834E-08  0.395E-04    5.66      35.5  T
     SCC iter.                  ...        0 min,  0.179 sec
     gradient                   ...        0 min,  0.092 sec
 * total energy  :   -63.1677809 Eh     change       -0.3984043E-02 Eh
   gradient norm :     0.0129030 Eh/α   predicted    -0.4033373E-02 (   1.24%)
   displ. norm   :     0.7750317 α      lambda       -0.3479611E-02
   maximum displ.:     0.5276678 α      in ANC's #5, #36, #10, ...

........................................................................
.............................. CYCLE   34 ..............................
........................................................................

 iter      E             dE          RMSdq      gap      omega  full diag
   1    -63.8367643 -0.638368E+02  0.102E-01    5.95       0.0  T
   2    -63.8368215 -0.572440E-04  0.601E-02    5.91       1.0  T
   3    -63.8368257 -0.422765E-05  0.342E-02    5.92       1.0  T
   4    -63.8368280 -0.227902E-05  0.269E-02    5.92       1.0  T
   5    -63.8368284 -0.411511E-06  0.725E-03    5.92       1.9  T
   6    -63.8368286 -0.178490E-06  0.114E-03    5.92      12.3  T
   7    -63.8368286 -0.159506E-07  0.671E-04    5.92      20.9  T
   8    -63.8368286 -0.664897E-09  0.154E-04    5.92      91.0  T
     SCC iter.                  ...        0 min,  0.095 sec
     gradient                   ...        0 min,  0.087 sec
 * total energy  :   -63.1698905 Eh     change       -0.2109557E-02 Eh
   gradient norm :     0.0164099 Eh/α   predicted    -0.2784861E-02 (  32.01%)
   displ. norm   :     0.5476649 α      lambda       -0.2288220E-02
   maximum displ.:     0.3405792 α      in ANC's #5, #2, #10, ...

........................................................................
.............................. CYCLE   35 ..............................
........................................................................

 iter      E             dE          RMSdq      gap      omega  full diag
   1    -63.8452735 -0.638453E+02  0.102E-01    6.02       0.0  T
   2    -63.8452989 -0.253901E-04  0.542E-02    6.01       1.0  T
   3    -63.8453017 -0.283107E-05  0.272E-02    6.01       1.0  T
   4    -63.8453022 -0.468933E-06  0.227E-02    6.01       1.0  T
   5    -63.8453025 -0.290340E-06  0.302E-03    6.01       4.6  T
   6    -63.8453025 -0.720800E-07  0.121E-03    6.01      11.5  T
   7    -63.8453025 -0.429533E-08  0.634E-04    6.01      22.1  T
   8    -63.8453025 -0.746809E-09  0.249E-04    6.01      56.3  T
     SCC iter.                  ...        0 min,  0.145 sec
     gradient                   ...        0 min,  0.050 sec
 * total energy  :   -63.1710510 Eh     change       -0.1160575E-02 Eh
   gradient norm :     0.0159821 Eh/α   predicted    -0.1487278E-02 (  28.15%)
   displ. norm   :     0.3586193 α      lambda       -0.9939775E-03
   maximum displ.:     0.1532862 α      in ANC's #2, #5, #10, ...

........................................................................
.............................. CYCLE   36 ..............................
........................................................................

 iter      E             dE          RMSdq      gap      omega  full diag
   1    -63.8434824 -0.638435E+02  0.737E-02    5.93       0.0  T
   2    -63.8434851 -0.271934E-05  0.403E-02    5.93       1.0  T
   3    -63.8434858 -0.639953E-06  0.618E-03    5.93       2.3  T
   4    -63.8434859 -0.738017E-07  0.385E-03    5.93       3.6  T
   5    -63.8434859 -0.167250E-07  0.179E-03    5.93       7.8  T
   6    -63.8434859 -0.849447E-08  0.520E-04    5.93      26.9  T
   7    -63.8434859 -0.436131E-09  0.246E-04    5.93      56.9  T
     SCC iter.                  ...        0 min,  0.059 sec
     gradient                   ...        0 min,  0.053 sec
 * total energy  :   -63.1717792 Eh     change       -0.7282108E-03 Eh
   gradient norm :     0.0140467 Eh/α   predicted    -0.5609068E-03 ( -22.97%)
   displ. norm   :     0.5358332 α      lambda       -0.1453457E-02
   maximum displ.:     0.2347784 α      in ANC's #2, #10, #24, ...

........................................................................
.............................. CYCLE   37 ..............................
........................................................................

 iter      E             dE          RMSdq      gap      omega  full diag
   1    -63.8435610 -0.638436E+02  0.121E-01    5.72       0.0  T
   2    -63.8435705 -0.958787E-05  0.658E-02    5.73       1.0  T
   3    -63.8435730 -0.241216E-05  0.119E-02    5.72       1.2  T
   4    -63.8435733 -0.298998E-06  0.805E-03    5.73       1.7  T
   5    -63.8435733 -0.420023E-07  0.306E-03    5.73       4.6  T
   6    -63.8435733 -0.311984E-07  0.538E-04    5.73      26.0  T
   7    -63.8435733 -0.273907E-09  0.282E-04    5.73      49.7  T
     SCC iter.                  ...        0 min,  0.068 sec
     gradient                   ...        0 min,  0.061 sec
 * total energy  :   -63.1721594 Eh     change       -0.3801976E-03 Eh
   gradient norm :     0.0276852 Eh/α   predicted    -0.9353886E-03 ( 146.03%)
   displ. norm   :     0.4121783 α      lambda       -0.1963633E-02
   maximum displ.:     0.1775958 α      in ANC's #2, #10, #24, ...

........................................................................
.............................. CYCLE   38 ..............................
........................................................................

 iter      E             dE          RMSdq      gap      omega  full diag
   1    -63.8419355 -0.638419E+02  0.125E-01    5.54       0.0  T
   2    -63.8419545 -0.189602E-04  0.719E-02    5.55       1.0  T
   3    -63.8419610 -0.648618E-05  0.129E-02    5.54       1.1  T
   4    -63.8419617 -0.701327E-06  0.729E-03    5.54       1.9  T
   5    -63.8419618 -0.134056E-06  0.352E-03    5.54       4.0  T
   6    -63.8419618 -0.332075E-07  0.873E-04    5.54      16.0  T
   7    -63.8419618 -0.117112E-08  0.428E-04    5.54      32.7  T
     SCC iter.                  ...        0 min,  0.150 sec
     gradient                   ...        0 min,  0.093 sec
 * total energy  :   -63.1714358 Eh     change        0.7236691E-03 Eh
   gradient norm :     0.0509525 Eh/α   predicted    -0.1148620E-02 (-258.72%)
   displ. norm   :     0.2458718 α      lambda       -0.3976035E-02
   maximum displ.:     0.1944138 α      in ANC's #16, #25, #2, ...

........................................................................
.............................. CYCLE   39 ..............................
........................................................................

 iter      E             dE          RMSdq      gap      omega  full diag
   1    -63.8397997 -0.638398E+02  0.946E-02    5.57       0.0  T
   2    -63.8398088 -0.914970E-05  0.569E-02    5.56       1.0  T
   3    -63.8398130 -0.416198E-05  0.103E-02    5.57       1.4  T
   4    -63.8398133 -0.315096E-06  0.568E-03    5.56       2.5  T
   5    -63.8398134 -0.536557E-07  0.213E-03    5.57       6.6  T
   6    -63.8398134 -0.136097E-07  0.656E-04    5.57      21.3  T
   7    -63.8398134 -0.794891E-09  0.301E-04    5.57      46.5  T
     SCC iter.                  ...        0 min,  0.077 sec
     gradient                   ...        0 min,  0.049 sec
 * total energy  :   -63.1725836 Eh     change       -0.1147855E-02 Eh
   gradient norm :     0.0331488 Eh/α   predicted    -0.2108200E-02 (  83.66%)
   displ. norm   :     0.2046313 α      lambda       -0.1841518E-02
   maximum displ.:     0.1535128 α      in ANC's #16, #24, #21, ...

........................................................................
.............................. CYCLE   40 ..............................
........................................................................

 iter      E             dE          RMSdq      gap      omega  full diag
   1    -63.8465634 -0.638466E+02  0.689E-02    5.65       0.0  T
   2    -63.8465673 -0.383574E-05  0.425E-02    5.65       1.0  T
   3    -63.8465690 -0.168931E-05  0.499E-03    5.65       2.8  T
   4    -63.8465691 -0.100629E-06  0.295E-03    5.65       4.7  T
   5    -63.8465691 -0.188486E-07  0.101E-03    5.65      13.9  T
   6    -63.8465691 -0.249756E-08  0.428E-04    5.65      32.7  T
   7    -63.8465691 -0.570239E-09  0.140E-04    5.65     100.0  T
     SCC iter.                  ...        0 min,  0.132 sec
     gradient                   ...        0 min,  0.052 sec
 * total energy  :   -63.1727566 Eh     change       -0.1729482E-03 Eh
   gradient norm :     0.0238199 Eh/α   predicted    -0.9593137E-03 ( 454.68%)
   displ. norm   :     0.1808900 α      lambda       -0.1055548E-02
   maximum displ.:     0.1085248 α      in ANC's #31, #10, #29, ...

........................................................................
.............................. CYCLE   41 ..............................
........................................................................

 iter      E             dE          RMSdq      gap      omega  full diag
   1    -63.8465916 -0.638466E+02  0.550E-02    5.62       0.0  T
   2    -63.8465942 -0.255124E-05  0.328E-02    5.61       1.0  T
   3    -63.8465951 -0.854078E-06  0.536E-03    5.61       2.6  T
   4    -63.8465951 -0.961009E-07  0.326E-03    5.61       4.3  T
   5    -63.8465952 -0.138773E-07  0.130E-03    5.61      10.7  T
   6    -63.8465952 -0.341532E-08  0.181E-04    5.61      77.4  T
   7    -63.8465952 -0.239147E-09  0.102E-04    5.61     137.3  T
     SCC iter.                  ...        0 min,  0.121 sec
     gradient                   ...        0 min,  0.048 sec
 * total energy  :   -63.1731806 Eh     change       -0.4240189E-03 Eh
   gradient norm :     0.0125326 Eh/α   predicted    -0.5450442E-03 (  28.54%)
   displ. norm   :     0.2481596 α      lambda       -0.6473458E-03
   maximum displ.:     0.1666199 α      in ANC's #2, #10, #35, ...

........................................................................
.............................. CYCLE   42 ..............................
........................................................................

 iter      E             dE          RMSdq      gap      omega  full diag
   1    -63.8375001 -0.638375E+02  0.672E-02    5.57       0.0  T
   2    -63.8375039 -0.379897E-05  0.406E-02    5.56       1.0  T
   3    -63.8375053 -0.132666E-05  0.767E-03    5.56       1.8  T
   4    -63.8375054 -0.125069E-06  0.408E-03    5.56       3.4  T
   5    -63.8375054 -0.161421E-07  0.170E-03    5.57       8.2  T
   6    -63.8375054 -0.647401E-08  0.337E-04    5.56      41.6  T
   7    -63.8375054 -0.278909E-09  0.121E-04    5.56     115.7  T
     SCC iter.                  ...        0 min,  0.075 sec
     gradient                   ...        0 min,  0.097 sec
 * total energy  :   -63.1731328 Eh     change        0.4779550E-04 Eh
   gradient norm :     0.0255363 Eh/α   predicted    -0.3436089E-03 (-818.91%)
   displ. norm   :     0.0826554 α      lambda       -0.6522894E-03
   maximum displ.:     0.0552995 α      in ANC's #29, #24, #43, ...
 * RMSD in coord.:     1.5703225 α      energy gain  -0.1650382E+00 Eh

generating ANC from exact Hessian ...
Using Lindh-Hessian (1995)
 Shifting diagonal of input Hessian by    1.2392437907861792E-002
 Lowest  eigenvalues of input Hessian
    0.010000    0.011747    0.012183    0.012239    0.012338    0.012339
    0.000000    0.000000    0.000000    0.000000    0.000000    0.000000
    0.012460    0.012473    0.012498    0.012608    0.012684    0.012704
 Highest eigenvalues
    1.406626    1.413573    1.417555    1.431099    1.439746    1.458161


........................................................................
.............................. CYCLE   43 ..............................
........................................................................

 iter      E             dE          RMSdq      gap      omega  full diag
   1    -63.8441069 -0.638441E+02  0.351E-02    5.58       0.0  T
   2    -63.8441080 -0.108008E-05  0.210E-02    5.59       1.0  T
   3    -63.8441084 -0.450645E-06  0.266E-03    5.59       5.3  T
   4    -63.8441084 -0.243820E-07  0.137E-03    5.59      10.2  T
   5    -63.8441084 -0.338080E-08  0.724E-04    5.59      19.4  T
   6    -63.8441084 -0.499519E-09  0.289E-04    5.59      48.5  T
     SCC iter.                  ...        0 min,  0.119 sec
     gradient                   ...        0 min,  0.096 sec
 * total energy  :   -63.1734803 Eh     change       -0.3475275E-03 Eh
   gradient norm :     0.0079803 Eh/α   predicted     0.0000000E+00 (-100.00%)
   displ. norm   :     0.1631736 α      lambda       -0.5485828E-03
   maximum displ.:     0.0947547 α      in ANC's #35, #34, #18, ...

........................................................................
.............................. CYCLE   44 ..............................
........................................................................

 iter      E             dE          RMSdq      gap      omega  full diag
   1    -63.8440751 -0.638441E+02  0.702E-02    5.59       0.0  T
   2    -63.8440779 -0.282909E-05  0.434E-02    5.59       1.0  T
   3    -63.8440796 -0.171111E-05  0.382E-03    5.59       3.7  T
   4    -63.8440796 -0.120802E-07  0.180E-03    5.59       7.8  T
   5    -63.8440796 -0.554039E-08  0.360E-04    5.59      38.9  T
   6    -63.8440796 -0.289916E-09  0.142E-04    5.59      98.3  T
     SCC iter.                  ...        0 min,  0.050 sec
     gradient                   ...        0 min,  0.056 sec
 * total energy  :   -63.1739518 Eh     change       -0.4714989E-03 Eh
   gradient norm :     0.0077616 Eh/α   predicted    -0.2817676E-03 ( -40.24%)
   displ. norm   :     0.3493418 α      lambda       -0.8421002E-03
   maximum displ.:     0.1720422 α      in ANC's #35, #34, #18, ...

........................................................................
.............................. CYCLE   45 ..............................
........................................................................

 iter      E             dE          RMSdq      gap      omega  full diag
   1    -63.8369227 -0.638369E+02  0.164E-01    5.62       0.0  T
   2    -63.8369441 -0.213067E-04  0.985E-02    5.62       1.0  T
   3    -63.8369502 -0.611171E-05  0.107E-02    5.61       1.3  T
   4    -63.8369511 -0.946151E-06  0.642E-03    5.62       2.2  T
   5    -63.8369512 -0.838868E-07  0.361E-03    5.62       3.9  T
   6    -63.8369512 -0.509475E-08  0.619E-04    5.62      22.6  T
   7    -63.8369512 -0.753559E-09  0.295E-04    5.62      47.5  T
     SCC iter.                  ...        0 min,  0.112 sec
     gradient                   ...        0 min,  0.066 sec
 * total energy  :   -63.1737667 Eh     change        0.1851166E-03 Eh
   gradient norm :     0.0345012 Eh/α   predicted    -0.4724544E-03 (-355.22%)
   displ. norm   :     0.1679681 α      lambda       -0.1709087E-02
   maximum displ.:     0.0983826 α      in ANC's #35, #34, #13, ...

........................................................................
.............................. CYCLE   46 ..............................
........................................................................

 iter      E             dE          RMSdq      gap      omega  full diag
   1    -63.8452772 -0.638453E+02  0.101E-01    5.63       0.0  T
   2    -63.8452861 -0.895407E-05  0.600E-02    5.62       1.0  T
   3    -63.8452888 -0.268094E-05  0.687E-03    5.63       2.0  T
   4    -63.8452892 -0.354087E-06  0.410E-03    5.62       3.4  T
   5    -63.8452892 -0.429821E-07  0.240E-03    5.62       5.8  T
   6    -63.8452892 -0.298578E-08  0.403E-04    5.62      34.7  T
   7    -63.8452892 -0.179249E-09  0.176E-04    5.62      79.4  T
     SCC iter.                  ...        0 min,  0.077 sec
     gradient                   ...        0 min,  0.095 sec
 * total energy  :   -63.1744034 Eh     change       -0.6366508E-03 Eh
   gradient norm :     0.0041776 Eh/α   predicted    -0.8786539E-03 (  38.01%)
   displ. norm   :     0.1005916 α      lambda       -0.1671704E-03
   maximum displ.:     0.0462770 α      in ANC's #18, #25, #10, ...

........................................................................
.............................. CYCLE   47 ..............................
........................................................................

 iter      E             dE          RMSdq      gap      omega  full diag
   1    -63.8455122 -0.638455E+02  0.307E-02    5.64       0.0  T
   2    -63.8455129 -0.710056E-06  0.188E-02    5.64       1.0  T
   3    -63.8455131 -0.164359E-06  0.271E-03    5.64       5.2  T
   4    -63.8455131 -0.450885E-07  0.186E-03    5.64       7.5  T
   5    -63.8455131 -0.322747E-08  0.904E-04    5.64      15.5  T
   6    -63.8455131 -0.393491E-09  0.124E-04    5.64     113.1  T
     SCC iter.                  ...        0 min,  0.093 sec
     gradient                   ...        0 min,  0.052 sec
 * total energy  :   -63.1745521 Eh     change       -0.1487121E-03 Eh
   gradient norm :     0.0040239 Eh/α   predicted    -0.8443185E-04 ( -43.22%)
   displ. norm   :     0.3651275 α      lambda       -0.5109209E-03
   maximum displ.:     0.1499556 α      in ANC's #10, #18, #7, ...

........................................................................
.............................. CYCLE   48 ..............................
........................................................................

 iter      E             dE          RMSdq      gap      omega  full diag
   1    -63.8427996 -0.638428E+02  0.116E-01    5.67       0.0  T
   2    -63.8428142 -0.146254E-04  0.711E-02    5.68       1.0  T
   3    -63.8428164 -0.216909E-05  0.101E-02    5.67       1.4  T
   4    -63.8428174 -0.101577E-05  0.750E-03    5.68       1.9  T
   5    -63.8428175 -0.562390E-07  0.468E-03    5.68       3.0  T
   6    -63.8428175 -0.621927E-08  0.606E-04    5.68      23.1  T
   7    -63.8428175 -0.166002E-08  0.256E-04    5.68      54.7  T
     SCC iter.                  ...        0 min,  0.063 sec
     gradient                   ...        0 min,  0.079 sec
 * total energy  :   -63.1747658 Eh     change       -0.2137524E-03 Eh
   gradient norm :     0.0156295 Eh/α   predicted    -0.2895197E-03 (  35.45%)
   displ. norm   :     0.0916333 α      lambda       -0.3477540E-03
   maximum displ.:     0.0347791 α      in ANC's #10, #33, #32, ...

........................................................................
.............................. CYCLE   49 ..............................
........................................................................

 iter      E             dE          RMSdq      gap      omega  full diag
   1    -63.8451806 -0.638452E+02  0.465E-02    5.69       0.0  T
   2    -63.8451824 -0.184379E-05  0.274E-02    5.69       1.0  T
   3    -63.8451831 -0.670142E-06  0.361E-03    5.69       3.9  T
   4    -63.8451832 -0.658813E-07  0.183E-03    5.69       7.7  T
   5    -63.8451832 -0.732408E-08  0.946E-04    5.69      14.8  T
   6    -63.8451832 -0.258902E-08  0.220E-04    5.69      63.7  T
     SCC iter.                  ...        0 min,  0.050 sec
     gradient                   ...        0 min,  0.054 sec
 * total energy  :   -63.1748126 Eh     change       -0.4678664E-04 Eh
   gradient norm :     0.0139374 Eh/α   predicted    -0.1753379E-03 ( 274.76%)
[...]
          :  GBSA solvation                   true          :
          :  PC potential                    false          :
          :  electronic temp.          300.0000000     K    :
          :  accuracy                    1.0000000          :
          :  -> integral cutoff          0.2500000E+02      :
          :  -> integral neglect         0.1000000E-07      :
          :  -> SCF convergence          0.1000000E-05 Eh   :
          :  -> wf. convergence          0.1000000E-03 e    :
          :  Broyden damping             0.4000000          :
          :  net charge                          2          :
          :  unpaired electrons                  0          :
          ...................................................

 iter      E             dE          RMSdq      gap      omega  full diag
   1    -63.8564589 -0.638565E+02  0.548E-05    5.76       0.0  T
   2    -63.8564589 -0.122782E-10  0.237E-05    5.76     591.4  T
   3    -63.8564589 -0.115108E-11  0.127E-05    5.76    1099.7  T

   *** convergence criteria satisfied after 3 iterations ***

         #    Occupation            Energy/Eh            Energy/eV
      -------------------------------------------------------------
         1        2.0000           -0.7196345             -19.5823
       ...           ...                  ...                  ...
        49        2.0000           -0.4335284             -11.7969
        50        2.0000           -0.4330922             -11.7850
        51        2.0000           -0.4273512             -11.6288
        52        2.0000           -0.4215842             -11.4719
        53        2.0000           -0.4184617             -11.3869
        54        2.0000           -0.4155888             -11.3087
        55        2.0000           -0.4152761             -11.3002 (HOMO)
        56                         -0.2037322              -5.5438 (LUMO)
        57                         -0.0065687              -0.1787
        58                          0.0096052               0.2614
        59                          0.0343077               0.9336
        60                          0.0418505               1.1388
       ...                                ...                  ...
       102                          1.1578029              31.5054
      -------------------------------------------------------------
                  HL-Gap            0.2115439 Eh            5.7564 eV
             Fermi-level           -0.3095042 Eh           -8.4220 eV

 SCC (total)                   0 d,  0 h,  0 min,  0.118 sec
 SCC setup                      ...        0 min,  0.006 sec (  4.665%)
 Dispersion                     ...        0 min,  0.001 sec (  0.565%)
 classical contributions        ...        0 min,  0.000 sec (  0.193%)
 integral evaluation            ...        0 min,  0.011 sec (  9.705%)
 iterations                     ...        0 min,  0.043 sec ( 36.111%)
 molecular gradient             ...        0 min,  0.050 sec ( 42.578%)
 printout                       ...        0 min,  0.007 sec (  6.156%)

         :::::::::::::::::::::::::::::::::::::::::::::::::::::
         ::                     SUMMARY                     ::
         :::::::::::::::::::::::::::::::::::::::::::::::::::::
         :: total energy             -63.186345756159 Eh    ::
         :: total w/o Gsasa/hb       -63.128141588319 Eh    ::
         :: gradient norm              0.000239958550 Eh/a0 ::
         :: HOMO-LUMO gap              5.756402318763 eV    ::
         ::.................................................::
         :: SCC energy               -63.856126212142 Eh    ::
         :: -> isotropic ES            0.481209944134 Eh    ::
         :: -> anisotropic ES         -0.015666541070 Eh    ::
         :: -> anisotropic XC          0.021250864111 Eh    ::
         :: -> dispersion             -0.031884303517 Eh    ::
         :: -> Gsolv                  -0.332697864580 Eh    ::
         ::    -> Gelec               -0.274493696740 Eh    ::
         ::    -> Gsasa               -0.001001186572 Eh    ::
         ::    -> Ghb                 -0.058283740966 Eh    ::
         ::    -> Gshift               0.001080759698 Eh    ::
         :: repulsion energy           0.669780455983 Eh    ::
         :: add. restraining           0.000000000000 Eh    ::
         :: total charge               2.000000000000 e     ::
         :::::::::::::::::::::::::::::::::::::::::::::::::::::

           -------------------------------------------------
          |                Property Printout                |
           -------------------------------------------------

    * Orbital Energies and Occupations

         #    Occupation            Energy/Eh            Energy/eV
      -------------------------------------------------------------
         1        2.0000           -0.7196345             -19.5823
       ...           ...                  ...                  ...
        43        2.0000           -0.4614901             -12.5578
        44        2.0000           -0.4601994             -12.5227
        45        2.0000           -0.4407409             -11.9932
        46        2.0000           -0.4400351             -11.9740
        47        2.0000           -0.4386702             -11.9368
        48        2.0000           -0.4382548             -11.9255
        49        2.0000           -0.4335284             -11.7969
        50        2.0000           -0.4330922             -11.7850
        51        2.0000           -0.4273512             -11.6288
        52        2.0000           -0.4215842             -11.4719
        53        2.0000           -0.4184617             -11.3869
        54        2.0000           -0.4155888             -11.3087
        55        2.0000           -0.4152761             -11.3002 (HOMO)
        56                         -0.2037322              -5.5438 (LUMO)
        57                         -0.0065687              -0.1787
        58                          0.0096052               0.2614
        59                          0.0343077               0.9336
        60                          0.0418505               1.1388
        61                          0.0612369               1.6663
        62                          0.0893870               2.4323
        63                          0.1058466               2.8802
        64                          0.1135685               3.0904
        65                          0.1156009               3.1457
        66                          0.1169530               3.1825
       ...                                ...                  ...
       102                          1.1578029              31.5054
      -------------------------------------------------------------
                  HL-Gap            0.2115439 Eh            5.7564 eV
             Fermi-level           -0.3095042 Eh           -8.4220 eV

     #   Z          covCN         q      C6AA      α(0)
     1   6 C        3.635    -0.018    21.293     6.640
     2   6 C        3.752    -0.132    23.102     6.854
     3   6 C        4.061    -0.085    22.025     6.666
     4   6 C        3.749     0.038    19.991     6.377
     5   6 C        3.752    -0.135    23.158     6.862
     6   6 C        3.801    -0.060    21.646     6.624
     7   6 C        3.803    -0.068    21.797     6.647
     8   6 C        3.803    -0.063    21.706     6.633
     9   6 C        3.801    -0.059    21.636     6.623
    10   6 C        3.752    -0.109    22.638     6.785
    11   1 H        0.924     0.071     2.079     2.255
    12   1 H        0.924     0.081     1.971     2.196
    13   1 H        0.925     0.104     1.749     2.068
    14   1 H        0.925     0.055     2.257     2.349
    15   1 H        0.925     0.051     2.304     2.374
    16   1 H        1.299     0.140     1.450     1.880
    17   1 H        0.924     0.106     1.736     2.060
    18   1 H        0.924     0.074     2.046     2.237
    19   1 H        0.924     0.092     1.861     2.134
    20   1 H        0.925     0.047     2.361     2.403
    21   1 H        0.925     0.059     2.208     2.324
    22   1 H        0.924     0.021     2.723     2.581
    23   1 H        0.924     0.026     2.638     2.540
    24   1 H        0.924     0.034     2.536     2.490
    25   1 H        0.924     0.039     2.467     2.456
    26   1 H        0.924     0.023     2.691     2.565
    27   1 H        0.924     0.026     2.643     2.543
    28   1 H        0.924     0.031     2.578     2.511
    29   1 H        0.924     0.033     2.539     2.492
    30   1 H        0.925     0.032     2.558     2.501
    31   1 H        0.925     0.030     2.585     2.515
    32   1 H        0.925     0.030     2.586     2.515
    33  48 Cd       4.175     0.450   190.784    26.512
    34   8 O        2.342    -0.359    20.020     6.043
    35   1 H        0.925     0.066     2.124     2.279
    36   1 H        0.804     0.376     0.530     1.144
    37   8 O        2.322    -0.371    20.241     6.076
    38   1 H        0.925     0.058     2.223     2.332
    39   1 H        0.804     0.404     0.478     1.086
    40   8 O        1.610    -0.684    27.289     7.051
    41   1 H        0.805     0.350     0.588     1.205
    42   1 H        0.805     0.342     0.608     1.224
    43   8 O        2.310    -0.541    23.734     6.580
    44   1 H        0.804     0.419     0.450     1.054
    45   1 H        0.804     0.417     0.454     1.059
    46   8 O        2.294    -0.541    23.728     6.579
    47   1 H        0.804     0.404     0.476     1.084
    48   1 H        0.804     0.413     0.461     1.066
    49   8 O        2.304    -0.542    23.764     6.584
    50   1 H        0.804     0.414     0.460     1.065
    51   1 H        0.804     0.411     0.466     1.072

 Mol. C6AA /au·bohr⁶  :      17425.877433
 Mol. C8AA /au·bohr⁸  :     436656.313012
 Mol. α(0) /au        :        199.793330


Wiberg/Mayer (AO) data.
largest (>0.10) Wiberg bond orders for each atom

 ---------------------------------------------------------------------------
     #   Z sym  total        # sym  WBO       # sym  WBO       # sym  WBO
 ---------------------------------------------------------------------------
     1   6 C    3.920 --    11 H    0.980    12 H    0.970    37 O    0.968
                            13 H    0.962
     2   6 C    3.989 --     3 C    1.011    14 H    0.984    38 H    0.983
                            15 H    0.983
     3   6 C    3.992 --     2 C    1.011     4 C    1.007    17 H    0.945
                            16 H    0.856    33 Cd   0.104
     4   6 C    3.926 --     3 C    1.007    18 H    0.961    19 H    0.955
                            34 O    0.953
     5   6 C    3.991 --     6 C    1.017    20 H    0.986    21 H    0.983
                            35 H    0.980
     6   6 C    3.996 --     5 C    1.017     7 C    1.007    22 H    0.979
                            23 H    0.979
     7   6 C    3.996 --     6 C    1.007     8 C    1.007    24 H    0.978
                            25 H    0.977
     8   6 C    3.996 --     9 C    1.007     7 C    1.007    26 H    0.978
                            27 H    0.977
     9   6 C    3.997 --    10 C    1.019     8 C    1.007    28 H    0.979
                            29 H    0.978
    10   6 C    3.996 --     9 C    1.019    31 H    0.988    30 H    0.988
                            32 H    0.987
    11   1 H    0.994 --     1 C    0.980
    12   1 H    0.993 --     1 C    0.970
    13   1 H    0.989 --     1 C    0.962
    14   1 H    0.997 --     2 C    0.984
    15   1 H    0.996 --     2 C    0.983
    16   1 H    0.980 --     3 C    0.856
    17   1 H    0.989 --     3 C    0.945
    18   1 H    0.994 --     4 C    0.961
    19   1 H    0.990 --     4 C    0.955
    20   1 H    0.998 --     5 C    0.986
    21   1 H    0.996 --     5 C    0.983
    22   1 H    0.999 --     6 C    0.979
    23   1 H    0.999 --     6 C    0.979
    24   1 H    0.999 --     7 C    0.978
    25   1 H    0.998 --     7 C    0.977
    26   1 H    0.999 --     8 C    0.978
    27   1 H    0.999 --     8 C    0.977
    28   1 H    0.999 --     9 C    0.979
    29   1 H    0.999 --     9 C    0.978
    30   1 H    0.999 --    10 C    0.988
    31   1 H    0.999 --    10 C    0.988
    32   1 H    0.999 --    10 C    0.987
    33  48 Cd   2.137 --    43 O    0.387    49 O    0.368    46 O    0.360
                            34 O    0.316    37 O    0.316     3 C    0.104
    34   8 O    2.246 --     4 C    0.953    36 H    0.828    33 Cd   0.316
    35   1 H    0.995 --     5 C    0.980
    36   1 H    0.858 --    34 O    0.828
    37   8 O    2.238 --     1 C    0.968    39 H    0.820    33 Cd   0.316
    38   1 H    0.996 --     2 C    0.983
    39   1 H    0.837 --    37 O    0.820
    40   8 O    1.775 --    42 H    0.882    41 H    0.876
    41   1 H    0.878 --    40 O    0.876
    42   1 H    0.883 --    40 O    0.882
    43   8 O    2.133 --    45 H    0.813    44 H    0.812    33 Cd   0.387
    44   1 H    0.824 --    43 O    0.812
    45   1 H    0.825 --    43 O    0.813
    46   8 O    2.126 --    47 H    0.825    48 H    0.818    33 Cd   0.360
    47   1 H    0.836 --    46 O    0.825
    48   1 H    0.829 --    46 O    0.818
    49   8 O    2.126 --    51 H    0.820    50 H    0.817    33 Cd   0.368
    50   1 H    0.829 --    49 O    0.817
    51   1 H    0.831 --    49 O    0.820
 ---------------------------------------------------------------------------

Topologies differ in total number of bonds
Writing topology from bond orders to xtbtopo.mol

molecular dipole:
                 x           y           z       tot (Debye)
 q only:      -16.692      -7.344      -0.212
   full:      -16.124      -7.283      -0.222      44.972
molecular quadrupole (traceless):
                xx          xy          yy          xz          yz          zz
 q only:      109.536      97.935     -23.952       0.680      -2.010     -85.584
  q+dip:      101.411     101.582     -19.200       0.578      -2.775     -82.212
   full:      102.771     100.786     -18.866       0.538      -2.408     -83.905

           -------------------------------------------------
          |                Geometry Summary                 |
           -------------------------------------------------

      molecular mass/u    :      362.7853318
   center of mass at/Å    :       -2.6273995      -0.9772605      -0.0109891
  moments of inertia/u·Å² :        0.1120291E+04   0.5450952E+04   0.6142551E+04
rotational constants/cm⁻¹ :        0.1504755E-01   0.3092603E-02   0.2744402E-02

 * 48 selected distances

     #   Z          #   Z                                           value/Å
     2   6 C        3   6 C                                       1.5252977
     3   6 C        4   6 C                                       1.5226905
     5   6 C        6   6 C                                       1.5254502
     6   6 C        7   6 C                                       1.5279056
     7   6 C        8   6 C                                       1.5263557
     8   6 C        9   6 C                                       1.5272241
     9   6 C       10   6 C                                       1.5240155
     1   6 C       11   1 H                                       1.0909093
     1   6 C       12   1 H                                       1.0923518
     1   6 C       13   1 H                                       1.0886162
     2   6 C       14   1 H                                       1.0869407
     2   6 C       15   1 H                                       1.0870583
     3   6 C       16   1 H                                       1.1077690
     3   6 C       17   1 H                                       1.0931630
     4   6 C       18   1 H                                       1.0963851
     4   6 C       19   1 H                                       1.0943572
     5   6 C       20   1 H                                       1.0873022
     5   6 C       21   1 H                                       1.0865101
     6   6 C       22   1 H                                       1.0926151
     6   6 C       23   1 H                                       1.0924131
     7   6 C       24   1 H                                       1.0926225
     7   6 C       25   1 H                                       1.0924442
     8   6 C       26   1 H                                       1.0931658
     8   6 C       27   1 H                                       1.0931635
     9   6 C       28   1 H                                       1.0924600
     9   6 C       29   1 H                                       1.0923727
    10   6 C       30   1 H                                       1.0881623
    10   6 C       31   1 H                                       1.0881854
    10   6 C       32   1 H                                       1.0876734
     4   6 C       34   8 O                                       1.4333779
    33  48 Cd      34   8 O                                       2.1438560
Note: The following floating-point exceptions are signalling: IEEE_UNDERFLOW_FLAG IEEE_DENORMAL
normal termination of xtb
     5   6 C       35   1 H                                       1.0868661
    34   8 O       36   1 H                                       0.9685949
     1   6 C       37   8 O                                       1.4333773
    33  48 Cd      37   8 O                                       2.1808167 (max)
     2   6 C       38   1 H                                       1.0862588
    37   8 O       39   1 H                                       0.9703630
    40   8 O       41   1 H                                       0.9619818
    40   8 O       42   1 H                                       0.9609963 (min)
    33  48 Cd      43   8 O                                       2.1142742
    43   8 O       44   1 H                                       0.9697824
    43   8 O       45   1 H                                       0.9695527
    33  48 Cd      46   8 O                                       2.1529499
    46   8 O       47   1 H                                       0.9696884
    46   8 O       48   1 H                                       0.9705906
    33  48 Cd      49   8 O                                       2.1288205
    49   8 O       50   1 H                                       0.9691670
    49   8 O       51   1 H                                       0.9694767

 * 5 distinct bonds (by element types)

   Z      Z             #   av. dist./Å        max./Å        min./Å
   1 H    6 C          24     1.0912403     1.1077690     1.0862588
   6 C    6 C           7     1.5255627     1.5279056     1.5226905
   1 H    8 O          10     0.9680194     0.9705906     0.9609963
   6 C    8 O           2     1.4333776     1.4333779     1.4333773
   8 O   48 Cd          5     2.1441435     2.1808167     2.1142742


optimized geometry written to: xtbopt.xyz


           -------------------------------------------------
          | TOTAL ENERGY              -63.186345756159 Eh   |
          | GRADIENT NORM               0.000239958550 Eh/α |
          | HOMO-LUMO GAP               5.756402318763 eV   |
           -------------------------------------------------

------------------------------------------------------------------------
 * finished run on 2026/05/26 at 02:10:16.129     
------------------------------------------------------------------------
 total:
 * wall-time:     0 d,  0 h,  0 min, 51.064 sec
 *  cpu-time:     0 d,  0 h,  1 min, 23.532 sec
 * ratio c/w:     1.636 speedup
 SCF:
 * wall-time:     0 d,  0 h,  0 min,  0.414 sec
 *  cpu-time:     0 d,  0 h,  0 min,  0.784 sec
 * ratio c/w:     1.897 speedup
 ANC optimizer:
 * wall-time:     0 d,  0 h,  0 min, 50.592 sec
 *  cpu-time:     0 d,  0 h,  1 min, 22.637 sec
 * ratio c/w:     1.633 speedup

