      -----------------------------------------------------------      
     |                   =====================                   |     
     |                           x T B                           |     
     |                   =====================                   |     
     |                         S. Grimme                         |     
     |          Mulliken Center for Theoretical Chemistry        |     
     |                    University of Bonn                     |     
      -----------------------------------------------------------      

   * xtb version 6.7.1 (edcfbbe) compiled by 'conda@c0858423619e' on 2025-09-04

   xtb is free software: you can redistribute it and/or modify it under
   the terms of the GNU Lesser General Public License as published by
   the Free Software Foundation, either version 3 of the License, or
   (at your option) any later version.
   
   xtb is distributed in the hope that it will be useful,
   but WITHOUT ANY WARRANTY; without even the implied warranty of
   MERCHANTABILITY or FITNESS FOR A PARTICULAR PURPOSE.  See the
   GNU Lesser General Public License for more details.
   
   Cite this work as:
   * C. Bannwarth, E. Caldeweyher, S. Ehlert, A. Hansen, P. Pracht,
     J. Seibert, S. Spicher, S. Grimme, WIREs Comput. Mol. Sci., 2020, 11,
     e01493. DOI: 10.1002/wcms.1493
   
   for GFN2-xTB:
   * C. Bannwarth, S. Ehlert and S. Grimme., J. Chem. Theory Comput., 2019,
     15, 1652-1671. DOI: 10.1021/acs.jctc.8b01176
   for GFN1-xTB:
   * S. Grimme, C. Bannwarth, P. Shushkov, J. Chem. Theory Comput., 2017,
     13, 1989-2009. DOI: 10.1021/acs.jctc.7b00118
   for GFN0-xTB:
   * P. Pracht, E. Caldeweyher, S. Ehlert, S. Grimme, ChemRxiv, 2019, preprint.
     DOI: 10.26434/chemrxiv.8326202.v1
   for GFN-FF:
   * S. Spicher and S. Grimme, Angew. Chem. Int. Ed., 2020, 59, 15665-15673.
     DOI: 10.1002/anie.202004239
   
   for ALPB and GBSA implicit solvation:
   * S. Ehlert, M. Stahn, S. Spicher, S. Grimme, J. Chem. Theory Comput.,
     2021, 17, 4250-4261. DOI: 10.1021/acs.jctc.1c00471
   
   for ddCOSMO and CPCM-X implicit solvation:
   * M. Stahn, S. Ehlert, S. Grimme, J. Phys. Chem. A,
     2023, XX, XXXX-XXXX. DOI: 10.1021/acs.jpca.3c04382
   
   for DFT-D4:
   * E. Caldeweyher, C. Bannwarth and S. Grimme, J. Chem. Phys., 2017,
     147, 034112. DOI: 10.1063/1.4993215
   * E. Caldeweyher, S. Ehlert, A. Hansen, H. Neugebauer, S. Spicher,
     C. Bannwarth and S. Grimme, J. Chem. Phys., 2019, 150, 154122.
     DOI: 10.1063/1.5090222
   * E. Caldeweyher, J.-M. Mewes, S. Ehlert and S. Grimme, Phys. Chem. Chem. Phys.
     2020, 22, 8499-8512. DOI: 10.1039/D0CP00502A
   
   for sTDA-xTB:
   * S. Grimme and C. Bannwarth, J. Chem. Phys., 2016, 145, 054103.
     DOI: 10.1063/1.4959605
   
   in the mass-spec context:
   * V. Asgeirsson, C. Bauer and S. Grimme, Chem. Sci., 2017, 8, 4879.
     DOI: 10.1039/c7sc00601b
   * J. Koopman and S. Grimme, ACS Omega 2019, 4, 12, 15120-15133.
     DOI: 10.1021/acsomega.9b02011
   
   for metadynamics refer to:
   * S. Grimme, J. Chem. Theory Comput., 2019, 155, 2847-2862
     DOI: 10.1021/acs.jctc.9b00143
   
   for SPH calculations refer to:
   * S. Spicher and S. Grimme, J. Chem. Theory Comput., 2021, 17, 1701-1714
     DOI: 10.1021/acs.jctc.0c01306
   
   for ONIOM refer to:
   * C. Plett, A. Katbashev, S. Ehlert, S. Grimme, M. Bursch,
     Phys. Chem. Chem. Phys., 2023, 25, 17860-17868. DOI: 10.1039/D3CP02178E
   
   for DIPRO refer to:
   * J. Kohn, N. Gildemeister, S. Grimme, D. Fazzi, A. Hansen,
     J. Chem. Phys., 2023, just accepted.
   
   for PTB refer to:
   * S. Grimme, M. Mueller, A. Hansen, J. Chem. Phys., 2023, 158, 124111.
     DOI: 10.1063/5.0137838
   
   with help from (in alphabetical order)
   P. Atkinson, C. Bannwarth, F. Bohle, G. Brandenburg, E. Caldeweyher
   M. Checinski, S. Dohm, S. Ehlert, S. Ehrlich, I. Gerasimov, C. Hölzer
   A. Katbashev, J. Kohn, J. Koopman, C. Lavigne, S. Lehtola, F. März, M. Müller,
   F. Musil, H. Neugebauer, J. Pisarek, C. Plett, P. Pracht, F. Pultar,
   J. Seibert, P. Shushkov, S. Spicher, M. Stahn, M. Steiner, T. Strunk,
   J. Stückrath, T. Rose, and J. Unsleber
   
 * started run on 2026/05/26 at 02:20:10.023     
   ID    Z sym.   atoms
    1    6 C      1-6, 11, 14, 15, 21, 24, 25
    2    1 H      7-10, 16-20, 26-30, 33, 34, 36, 37, 39, 40, 42, 43, 45, 46,
                  48, 49
    3    8 O      12, 13, 22, 23, 32, 35, 38, 41, 44, 47
    4   48 Cd     31

           -------------------------------------------------
          |                Calculation Setup                |
           -------------------------------------------------

          program call               : /content/xtb_env/bin/xtb input.xyz --gfn 2 --opt tight --alpb water --chrg 2 --uhf 0
          hostname                   : 01035569fb61
          coordinate file            : input.xyz
          omp threads                :                     2


molecular fragmentation (1/2 indicates fragments):
1111111111111111111111111111111111111111111222222
# atoms in fragment 1/2:    43     6
 fragment masses (1/2) :      406.71       36.03
CMA distance (Bohr)    :   7.043
constraining FC (au)   :  0.0500

           -------------------------------------------------
          |                 G F N 2 - x T B                 |
           -------------------------------------------------

        Reference                      10.1021/acs.jctc.8b01176
      * Hamiltonian:
        H0-scaling (s, p, d)           1.850000    2.230000    2.230000
        zeta-weighting                 0.500000
      * Dispersion:
        s8                             2.700000
        a1                             0.520000
        a2                             5.000000
        s9                             5.000000
      * Repulsion:
        kExp                           1.500000    1.000000
        rExp                           1.000000
      * Coulomb:
        alpha                          2.000000
        third order                    shell-resolved
        anisotropic                    true
        a3                             3.000000
        a5                             4.000000
        cn-shift                       1.200000
        cn-exp                         4.000000
        max-rad                        5.000000

      * Solvation model:               ALPB
        Solvent                        water
        Parameter file                 internal GFN2-xTB/ALPB
        Dielectric constant                8.0200E+01
        Reference state                gsolv [1 M gas/solution]
        Free energy shift                  1.0808E-03 Eh       6.7819E-01 kcal/mol
        Temperature                        2.9815E+02 K
        Density                            1.0000E+00 kg/L
        Solvent mass                       1.8000E+01 g/mol
        Interaction kernel             P16
        Born radius scaling (c1)           1.4744E+00
        Born radii integrator          GBOBC
        Born offset                        0.0000E+00 a0       0.0000E+00 AA
        H-bond correction              true
        Ion screening                  false
        Surface tension                    1.0000E-05 Eh       1.5569E+01 dyn/cm
        Grid points                               230 per atom

          ...................................................
          :                      SETUP                      :
          :.................................................:
          :  # basis functions                 118          :
          :  # atomic orbitals                 118          :
          :  # shells                           72          :
          :  # electrons                       134          :
          :  max. iterations                   250          :
          :  Hamiltonian                  GFN2-xTB          :
          :  restarted?                      false          :
          :  GBSA solvation                   true          :
          :  PC potential                    false          :
          :  electronic temp.          300.0000000     K    :
          :  accuracy                    1.0000000          :
          :  -> integral cutoff          0.2500000E+02      :
          :  -> integral neglect         0.1000000E-07      :
          :  -> SCF convergence          0.1000000E-05 Eh   :
          :  -> wf. convergence          0.1000000E-03 e    :
          :  Broyden damping             0.4000000          :
          :  net charge                          2          :
          :  unpaired electrons                  0          :
          ...................................................

 iter      E             dE          RMSdq      gap      omega  full diag
   1    -75.9662888 -0.759663E+02  0.699E+00    0.34       0.0  T
   2    -77.4090163 -0.144273E+01  0.647E+00    1.19       1.0  T
   3    -78.0470946 -0.638078E+00  0.427E+00    0.08       1.0  T
   4    -77.9819221  0.651725E-01  0.234E+00    0.58       1.0  T
   5    -78.0871524 -0.105230E+00  0.192E+00    0.72       1.0  T
   6    -78.1015056 -0.143532E-01  0.160E+00    0.33       1.0  T
   7    -78.1591214 -0.576158E-01  0.135E+00    0.46       1.0  T
   8    -78.2153842 -0.562628E-01  0.946E-01    0.19       1.0  T
   9    -78.1113362  0.104048E+00  0.157E+00    0.27       1.0  T
  10    -78.2260924 -0.114756E+00  0.824E-01    0.17       1.0  T
  11    -78.2777799 -0.516874E-01  0.167E-01    0.10       1.0  T
  12    -78.2784098 -0.629932E-03  0.150E-01    0.10       1.0  T
  13    -78.2790474 -0.637606E-03  0.685E-02    0.09       1.0  T
  14    -78.2767560  0.229142E-02  0.190E-01    0.09       1.0  T
  15    -78.2787078 -0.195182E-02  0.740E-02    0.09       1.0  T
  16    -78.2790512 -0.343400E-03  0.333E-02    0.09       1.0  T
  17    -78.2791129 -0.617182E-04  0.184E-02    0.09       1.0  T
  18    -78.2791390 -0.261053E-04  0.112E-03    0.09      12.7  T
  19    -78.2791385  0.568867E-06  0.287E-03    0.09       5.0  T
  20    -78.2791387 -0.226762E-06  0.233E-03    0.09       6.1  T
  21    -78.2791390 -0.353920E-06  0.585E-04    0.09      24.4  T
  22    -78.2791391 -0.179401E-07  0.323E-04    0.09      44.2  T

   *** convergence criteria satisfied after 22 iterations ***

         #    Occupation            Energy/Eh            Energy/eV
      -------------------------------------------------------------
         1        2.0000           -0.9300650             -25.3084
       ...           ...                  ...                  ...
        61        2.0000           -0.3561799              -9.6921
        62        2.0000           -0.3544470              -9.6450
        63        2.0000           -0.2849803              -7.7547
        64        2.0000           -0.2820023              -7.6737
        65        2.0000           -0.2726220              -7.4184
        66        2.0000           -0.2369243              -6.4470
        67        1.6843           -0.2281060              -6.2071 (HOMO)
        68        0.3157           -0.2249245              -6.1205 (LUMO)
        69                         -0.2000827              -5.4445
        70                         -0.1898386              -5.1658
        71                         -0.1308104              -3.5595
        72                         -0.1092161              -2.9719
       ...                                ...                  ...
       118                          4.8148574             131.0189
      -------------------------------------------------------------
                  HL-Gap            0.0031815 Eh            0.0866 eV
             Fermi-level           -0.2265152 Eh           -6.1638 eV

 SCC (total)                   0 d,  0 h,  0 min,  0.526 sec
 SCC setup                      ...        0 min,  0.004 sec (  0.774%)
 Dispersion                     ...        0 min,  0.003 sec (  0.597%)
 classical contributions        ...        0 min,  0.000 sec (  0.040%)
 integral evaluation            ...        0 min,  0.014 sec (  2.637%)
 iterations                     ...        0 min,  0.443 sec ( 84.253%)
 molecular gradient             ...        0 min,  0.060 sec ( 11.455%)
 printout                       ...        0 min,  0.001 sec (  0.237%)

         :::::::::::::::::::::::::::::::::::::::::::::::::::::
         ::                     SUMMARY                     ::
         :::::::::::::::::::::::::::::::::::::::::::::::::::::
         :: total energy             -76.650571452641 Eh    ::
         :: total w/o Gsasa/hb       -76.583508088685 Eh    ::
         :: gradient norm              5.447699864676 Eh/a0 ::
         :: HOMO-LUMO gap              0.086572513604 eV    ::
         ::.................................................::
         :: SCC energy               -78.279233411354 Eh    ::
         :: -> isotropic ES            0.814353632042 Eh    ::
         :: -> anisotropic ES         -0.008526465508 Eh    ::
         :: -> anisotropic XC         -0.068264248193 Eh    ::
         :: -> dispersion             -0.043864794134 Eh    ::
         :: -> Gsolv                  -0.538067836267 Eh    ::
         ::    -> Gelec               -0.471004472310 Eh    ::
         ::    -> Gsasa                0.000310102649 Eh    ::
         ::    -> Ghb                 -0.068454226304 Eh    ::
         ::    -> Gshift               0.001080759698 Eh    ::
         :: repulsion energy           1.628661958713 Eh    ::
         :: add. restraining           0.000000000000 Eh    ::
         :: total charge               2.000000000000 e     ::
         :::::::::::::::::::::::::::::::::::::::::::::::::::::

      ----------------------------------------------------------- 
     |                   =====================                   |
     |                        A N C O P T                        |
     |                   =====================                   |
     |               Approximate Normal Coordinate               |
     |                Rational Function Optimizer                |
      ----------------------------------------------------------- 
      ----------------------------------------------------------- 
     |                   =====================                   |
     |                        A N C O P T                        |
     |                   =====================                   |
     |               Approximate Normal Coordinate               |
     |                Rational Function Optimizer                |
      ----------------------------------------------------------- 

          ...................................................
          :                      SETUP                      :
          :.................................................:
          :   optimization level             tight          :
          :   max. optcycles                   245          :
          :   ANC micro-cycles                  20          :
          :   degrees of freedom               141          :
          :.................................................:
          :   RF solver                   davidson          :
          :   write xtbopt.log                true          :
          :   linear?                        false          :
          :   energy convergence         0.1000000E-05 Eh   :
          :   grad. convergence          0.8000000E-03 Eh/α :
          :   maxmium RF displ.          1.0000000          :
          :   Hlow (freq-cutoff)         0.1000000E-01      :
          :   Hmax (freq-cutoff)         5.0000000          :
          :   S6 in model hess.         20.0000000          :
          ...................................................

generating ANC from exact Hessian ...
Using Lindh-Hessian (1995)
 Shifting diagonal of input Hessian by    1.0166139062553155E-002
 Lowest  eigenvalues of input Hessian
    0.010000    0.010063    0.010100    0.010125    0.000000    0.000000
    0.000000    0.000000    0.000000    0.000000    0.010238    0.010286
    0.010334    0.010455    0.010507    0.010628    0.010638    0.010645
 Highest eigenvalues
    2.613194    2.801004    2.985457    4.530564    5.821789    6.319836


........................................................................
.............................. CYCLE    1 ..............................
........................................................................

 iter      E             dE          RMSdq      gap      omega  full diag
   1    -78.2791391 -0.782791E+02  0.593E-05    0.09       0.0  T
   2    -78.2791389  0.112548E-06  0.122E-03    0.09      11.7  T
   3    -78.2791391 -0.112784E-06  0.108E-05    0.09    1319.9  T
   4    -78.2791391  0.306954E-11  0.149E-05    0.09     956.2  T
     SCC iter.                  ...        0 min,  0.086 sec
     gradient                   ...        0 min,  0.061 sec
 * total energy  :   -76.6505715 Eh     change       -0.7588497E-08 Eh
   gradient norm :     5.4474959 Eh/α   predicted     0.0000000E+00 (-100.00%)
   displ. norm   :     0.6642469 α      lambda       -0.3576774E+01
   maximum displ.:     0.5369675 α      in ANC's #141, #140, #138, ...

........................................................................
.............................. CYCLE    2 ..............................
........................................................................

 iter      E             dE          RMSdq      gap      omega  full diag
   1    -78.9186137 -0.789186E+02  0.167E+00    0.33       0.0  T
   2    -78.3396860  0.578928E+00  0.350E+00    0.75       1.0  T
   3    -79.0000187 -0.660333E+00  0.104E+00    0.40       1.0  T
   4    -79.0041398 -0.412112E-02  0.633E-01    0.31       1.0  T
   5    -79.0064253 -0.228548E-02  0.479E-01    0.25       1.0  T
   6    -79.0120733 -0.564804E-02  0.910E-02    0.14       1.0  T
   7    -79.0119618  0.111495E-03  0.876E-02    0.16       1.0  T
   8    -79.0120729 -0.111103E-03  0.631E-02    0.15       1.0  T
   9    -79.0122540 -0.181050E-03  0.127E-02    0.14       1.1  T
  10    -79.0122583 -0.435999E-05  0.785E-03    0.14       1.8  T
  11    -79.0122591 -0.720163E-06  0.765E-03    0.14       1.9  T
  12    -79.0122620 -0.294580E-05  0.380E-03    0.14       3.8  T
  13    -79.0122629 -0.910775E-06  0.129E-03    0.14      11.1  T
  14    -79.0122630 -0.100545E-06  0.511E-04    0.14      28.0  T
  15    -79.0122630 -0.107158E-07  0.256E-04    0.14      55.8  T
     SCC iter.                  ...        0 min,  0.231 sec
     gradient                   ...        0 min,  0.061 sec
 * total energy  :   -77.9629351 Eh     change       -0.1312364E+01 Eh
   gradient norm :     0.8487179 Eh/α   predicted    -0.2577510E+01 (  96.40%)
   displ. norm   :     0.6586100 α      lambda       -0.4133562E+00
   maximum displ.:     0.2702126 α      in ANC's #69, #71, #66, ...

........................................................................
.............................. CYCLE    3 ..............................
........................................................................

 iter      E             dE          RMSdq      gap      omega  full diag
   1    -79.1985836 -0.791986E+02  0.702E-01    0.40       0.0  T
   2    -78.5674488  0.631135E+00  0.330E+00    0.18       1.0  T
   3    -79.2057800 -0.638331E+00  0.399E-01    0.19       1.0  T
   4    -79.2059539 -0.173869E-03  0.244E-01    0.16       1.0  T
   5    -79.1949036  0.110503E-01  0.468E-01    0.08       1.0  T
   6    -79.2042189 -0.931525E-02  0.228E-01    0.11       1.0  T
   7    -79.2065066 -0.228777E-02  0.106E-01    0.14       1.0  T
   8    -79.2066904 -0.183755E-03  0.819E-02    0.14       1.0  T
   9    -79.2069990 -0.308588E-03  0.370E-02    0.15       1.0  T
  10    -79.2070333 -0.343720E-04  0.256E-02    0.16       1.0  T
  11    -79.2070579 -0.246013E-04  0.140E-02    0.16       1.0  T
  12    -79.2070633 -0.539231E-05  0.949E-03    0.16       1.5  T
  13    -79.2070663 -0.292428E-05  0.577E-03    0.16       2.5  T
  14    -79.2070675 -0.120194E-05  0.328E-03    0.16       4.4  T
  15    -79.2070680 -0.496762E-06  0.110E-03    0.16      13.0  T
  16    -79.2070680 -0.612288E-07  0.109E-04    0.16     130.8  T
  17    -79.2070680 -0.195243E-09  0.739E-05    0.16     193.3  T
     SCC iter.                  ...        0 min,  0.346 sec
     gradient                   ...        0 min,  0.069 sec
 * total energy  :   -78.2927713 Eh     change       -0.3298362E+00 Eh
   gradient norm :     0.5014626 Eh/α   predicted    -0.2963396E+00 ( -10.16%)
   displ. norm   :     0.7402914 α      lambda       -0.2952771E+00
   maximum displ.:     0.2861476 α      in ANC's #69, #66, #67, ...

........................................................................
.............................. CYCLE    4 ..............................
........................................................................

 iter      E             dE          RMSdq      gap      omega  full diag
   1    -79.3825602 -0.793826E+02  0.818E-01    0.72       0.0  T
   2    -79.3864053 -0.384513E-02  0.427E-01    0.62       1.0  T
   3    -79.3861429  0.262426E-03  0.202E-01    0.76       1.0  T
   4    -79.3869928 -0.849953E-03  0.709E-02    0.65       1.0  T
   5    -79.3870476 -0.547843E-04  0.249E-02    0.66       1.0  T
   6    -79.3870514 -0.376648E-05  0.162E-02    0.67       1.0  T
   7    -79.3870548 -0.343476E-05  0.547E-03    0.68       2.6  T
   8    -79.3870550 -0.178497E-06  0.259E-03    0.68       5.5  T
   9    -79.3870551 -0.101403E-06  0.981E-04    0.68      14.6  T
  10    -79.3870551 -0.866130E-08  0.417E-04    0.68      34.3  T
     SCC iter.                  ...        0 min,  0.082 sec
     gradient                   ...        0 min,  0.056 sec
 * total energy  :   -78.5434209 Eh     change       -0.2506496E+00 Eh
   gradient norm :     0.3318134 Eh/α   predicted    -0.2285492E+00 (  -8.82%)
   displ. norm   :     0.8265231 α      lambda       -0.2386497E+00
   maximum displ.:     0.2881214 α      in ANC's #66, #69, #63, ...

........................................................................
.............................. CYCLE    5 ..............................
........................................................................

 iter      E             dE          RMSdq      gap      omega  full diag
   1    -79.5271733 -0.795272E+02  0.927E-01    1.09       0.0  T
   2    -79.5343261 -0.715282E-02  0.417E-01    1.31       1.0  T
   3    -79.5344660 -0.139883E-03  0.212E-01    1.31       1.0  T
   4    -79.5345169 -0.508776E-04  0.499E-02    1.29       1.0  T
   5    -79.5345834 -0.665686E-04  0.189E-02    1.30       1.0  T
   6    -79.5345858 -0.235095E-05  0.114E-02    1.30       1.2  T
   7    -79.5345869 -0.106352E-05  0.509E-03    1.30       2.8  T
   8    -79.5345870 -0.154144E-06  0.220E-03    1.30       6.5  T
   9    -79.5345871 -0.686366E-07  0.107E-03    1.30      13.3  T
  10    -79.5345871 -0.516087E-08  0.387E-04    1.30      36.9  T
  11    -79.5345871 -0.128276E-08  0.211E-04    1.30      67.6  T
     SCC iter.                  ...        0 min,  0.110 sec
     gradient                   ...        0 min,  0.055 sec
 * total energy  :   -78.7479549 Eh     change       -0.2045340E+00 Eh
   gradient norm :     0.2790593 Eh/α   predicted    -0.2008405E+00 (  -1.81%)
   displ. norm   :     0.8107707 α      lambda       -0.1826677E+00
   maximum displ.:     0.2830246 α      in ANC's #69, #66, #63, ...

........................................................................
.............................. CYCLE    6 ..............................
........................................................................

 iter      E             dE          RMSdq      gap      omega  full diag
   1    -79.6458231 -0.796458E+02  0.749E-01    1.16       0.0  T
   2    -79.6536534 -0.783021E-02  0.365E-01    1.59       1.0  T
   3    -79.6540355 -0.382119E-03  0.213E-01    1.50       1.0  T
   4    -79.6541760 -0.140532E-03  0.784E-02    1.55       1.0  T
   5    -79.6542999 -0.123873E-03  0.198E-02    1.53       1.0  T
   6    -79.6543029 -0.302654E-05  0.120E-02    1.53       1.2  T
   7    -79.6543035 -0.625817E-06  0.576E-03    1.53       2.5  T
   8    -79.6543039 -0.345457E-06  0.214E-03    1.53       6.7  T
   9    -79.6543039 -0.448435E-07  0.109E-03    1.53      13.1  T
  10    -79.6543039 -0.949872E-08  0.455E-04    1.53      31.4  T
  11    -79.6543039 -0.144631E-08  0.197E-04    1.53      72.4  T
     SCC iter.                  ...        0 min,  0.214 sec
     gradient                   ...        0 min,  0.064 sec
 * total energy  :   -78.9044436 Eh     change       -0.1564887E+00 Eh
   gradient norm :     0.2634115 Eh/α   predicted    -0.1513722E+00 (  -3.27%)
   displ. norm   :     0.7847464 α      lambda       -0.1469415E+00
   maximum displ.:     0.2692186 α      in ANC's #69, #65, #66, ...

........................................................................
.............................. CYCLE    7 ..............................
........................................................................

 iter      E             dE          RMSdq      gap      omega  full diag
   1    -79.7373156 -0.797373E+02  0.909E-01    0.98       0.0  T
   2    -79.7495762 -0.122605E-01  0.668E-01    1.65       1.0  T
   3    -79.7642746 -0.146985E-01  0.241E-01    1.29       1.0  T
   4    -79.7643990 -0.124361E-03  0.113E-01    1.25       1.0  T
   5    -79.7645000 -0.101009E-03  0.414E-02    1.25       1.0  T
   6    -79.7645483 -0.482986E-04  0.152E-02    1.27       1.0  T
   7    -79.7645506 -0.227553E-05  0.845E-03    1.27       1.7  T
   8    -79.7645511 -0.511462E-06  0.231E-03    1.27       6.2  T
   9    -79.7645511 -0.504941E-07  0.122E-03    1.27      11.7  T
  10    -79.7645512 -0.961309E-08  0.684E-04    1.27      20.9  T
  11    -79.7645512 -0.381766E-08  0.234E-04    1.27      61.2  T
     SCC iter.                  ...        0 min,  0.201 sec
     gradient                   ...        0 min,  0.061 sec
 * total energy  :   -79.0307993 Eh     change       -0.1263556E+00 Eh
   gradient norm :     0.2542081 Eh/α   predicted    -0.1187160E+00 (  -6.05%)
   displ. norm   :     0.7617139 α      lambda       -0.1276522E+00
   maximum displ.:     0.2426397 α      in ANC's #65, #69, #63, ...

........................................................................
.............................. CYCLE    8 ..............................
........................................................................

 iter      E             dE          RMSdq      gap      omega  full diag
   1    -79.8382535 -0.798383E+02  0.107E+00    1.07       0.0  T
   2    -79.8382345  0.189641E-04  0.102E+00    1.72       1.0  T
   3    -79.8794845 -0.412500E-01  0.244E-01    1.23       1.0  T
   4    -79.8798419 -0.357445E-03  0.128E-01    1.17       1.0  T
   5    -79.8800022 -0.160247E-03  0.464E-02    1.18       1.0  T
   6    -79.8800685 -0.663650E-04  0.136E-02    1.19       1.1  T
   7    -79.8800709 -0.235683E-05  0.733E-03    1.19       1.9  T
   8    -79.8800713 -0.381436E-06  0.318E-03    1.19       4.5  T
   9    -79.8800713 -0.736117E-07  0.109E-03    1.19      13.1  T
  10    -79.8800713 -0.484474E-08  0.711E-04    1.19      20.1  T
  11    -79.8800714 -0.426823E-08  0.251E-04    1.19      56.9  T
     SCC iter.                  ...        0 min,  0.224 sec
     gradient                   ...        0 min,  0.094 sec
 * total energy  :   -79.1413452 Eh     change       -0.1105459E+00 Eh
   gradient norm :     0.2461928 Eh/α   predicted    -0.1008586E+00 (  -8.76%)
   displ. norm   :     0.7524872 α      lambda       -0.1197362E+00
   maximum displ.:     0.2356178 α      in ANC's #65, #63, #66, ...

........................................................................
.............................. CYCLE    9 ..............................
........................................................................

 iter      E             dE          RMSdq      gap      omega  full diag
   1    -79.9690329 -0.799690E+02  0.106E+00    1.34       0.0  T
   2    -79.9569595  0.120734E-01  0.107E+00    1.63       1.0  T
   3    -80.0054962 -0.485367E-01  0.240E-01    1.31       1.0  T
   4    -80.0055976 -0.101377E-03  0.101E-01    1.30       1.0  T
   5    -80.0057207 -0.123108E-03  0.251E-02    1.30       1.0  T
   6    -80.0057297 -0.902162E-05  0.120E-02    1.31       1.2  T
   7    -80.0057323 -0.254390E-05  0.619E-03    1.31       2.3  T
   8    -80.0057324 -0.948328E-07  0.209E-03    1.31       6.8  T
   9    -80.0057324 -0.571911E-07  0.973E-04    1.31      14.7  T
  10    -80.0057324 -0.283754E-08  0.484E-04    1.31      29.5  T
     SCC iter.                  ...        0 min,  0.087 sec
     gradient                   ...        0 min,  0.100 sec
 * total energy  :   -79.2442120 Eh     change       -0.1028668E+00 Eh
   gradient norm :     0.2365170 Eh/α   predicted    -0.9376766E-01 (  -8.85%)
   displ. norm   :     0.7392683 α      lambda       -0.1073153E+00
   maximum displ.:     0.2193345 α      in ANC's #65, #63, #87, ...

........................................................................
.............................. CYCLE   10 ..............................
........................................................................

 iter      E             dE          RMSdq      gap      omega  full diag
   1    -80.0992254 -0.800992E+02  0.944E-01    1.76       0.0  T
   2    -80.0975943  0.163115E-02  0.795E-01    1.61       1.0  T
   3    -80.1232068 -0.256125E-01  0.281E-01    1.59       1.0  T
   4    -80.1240421 -0.835355E-03  0.672E-02    1.55       1.0  T
   5    -80.1241648 -0.122717E-03  0.221E-02    1.56       1.0  T
   6    -80.1241715 -0.661900E-05  0.114E-02    1.56       1.3  T
   7    -80.1241732 -0.177576E-05  0.622E-03    1.56       2.3  T
   8    -80.1241733 -0.110021E-06  0.213E-03    1.56       6.7  T
   9    -80.1241734 -0.681373E-07  0.820E-04    1.56      17.4  T
  10    -80.1241734 -0.381716E-08  0.459E-04    1.56      31.1  T
     SCC iter.                  ...        0 min,  0.140 sec
     gradient                   ...        0 min,  0.065 sec
 * total energy  :   -79.3328635 Eh     change       -0.8865149E-01 Eh
   gradient norm :     0.2143494 Eh/α   predicted    -0.8298268E-01 (  -6.39%)
   displ. norm   :     0.6918033 α      lambda       -0.8226690E-01
   maximum displ.:     0.2174874 α      in ANC's #87, #65, #27, ...

........................................................................
.............................. CYCLE   11 ..............................
........................................................................

 iter      E             dE          RMSdq      gap      omega  full diag
   1    -80.2013297 -0.802013E+02  0.729E-01    2.12       0.0  T
   2    -80.2084565 -0.712681E-02  0.428E-01    1.78       1.0  T
   3    -80.2139055 -0.544901E-02  0.220E-01    1.87       1.0  T
   4    -80.2143019 -0.396379E-03  0.569E-02    1.81       1.0  T
   5    -80.2143696 -0.676762E-04  0.222E-02    1.83       1.0  T
   6    -80.2143787 -0.911269E-05  0.985E-03    1.83       1.5  T
   7    -80.2143803 -0.161398E-05  0.455E-03    1.83       3.1  T
   8    -80.2143804 -0.904696E-07  0.170E-03    1.83       8.4  T
   9    -80.2143804 -0.288265E-07  0.796E-04    1.83      17.9  T
  10    -80.2143805 -0.916614E-08  0.347E-04    1.83      41.2  T
     SCC iter.                  ...        0 min,  0.164 sec
     gradient                   ...        0 min,  0.104 sec
 * total energy  :   -79.3964713 Eh     change       -0.6360777E-01 Eh
   gradient norm :     0.1743148 Eh/α   predicted    -0.6081961E-01 (  -4.38%)
   displ. norm   :     0.6397664 α      lambda       -0.5334597E-01
   maximum displ.:     0.2246087 α      in ANC's #33, #27, #87, ...

........................................................................
.............................. CYCLE   12 ..............................
........................................................................

 iter      E             dE          RMSdq      gap      omega  full diag
   1    -80.2558715 -0.802559E+02  0.427E-01    2.07       0.0  T
   2    -80.2581715 -0.229997E-02  0.237E-01    1.84       1.0  T
   3    -80.2590640 -0.892530E-03  0.137E-01    1.91       1.0  T
   4    -80.2591944 -0.130356E-03  0.284E-02    1.88       1.0  T
   5    -80.2592028 -0.838778E-05  0.129E-02    1.89       1.1  T
   6    -80.2592056 -0.288844E-05  0.656E-03    1.89       2.2  T
   7    -80.2592059 -0.207055E-06  0.286E-03    1.89       5.0  T
   8    -80.2592059 -0.392125E-07  0.118E-03    1.89      12.1  T
   9    -80.2592059 -0.163883E-07  0.454E-04    1.89      31.4  T
  10    -80.2592059 -0.164682E-08  0.195E-04    1.89      73.1  T
     SCC iter.                  ...        0 min,  0.104 sec
     gradient                   ...        0 min,  0.060 sec
 * total energy  :   -79.4393429 Eh     change       -0.4287163E-01 Eh
   gradient norm :     0.1525039 Eh/α   predicted    -0.3759044E-01 ( -12.32%)
   displ. norm   :     0.6591120 α      lambda       -0.4659756E-01
   maximum displ.:     0.2486929 α      in ANC's #27, #33, #89, ...

........................................................................
.............................. CYCLE   13 ..............................
........................................................................

 iter      E             dE          RMSdq      gap      omega  full diag
   1    -80.2955200 -0.802955E+02  0.326E-01    1.95       0.0  T
   2    -80.2962352 -0.715185E-03  0.182E-01    1.81       1.0  T
   3    -80.2963673 -0.132114E-03  0.109E-01    1.86       1.0  T
   4    -80.2965028 -0.135479E-03  0.213E-02    1.84       1.0  T
   5    -80.2965064 -0.365627E-05  0.115E-02    1.84       1.2  T
   6    -80.2965070 -0.520906E-06  0.660E-03    1.84       2.2  T
   7    -80.2965072 -0.277275E-06  0.170E-03    1.84       8.4  T
   8    -80.2965073 -0.280244E-07  0.780E-04    1.84      18.3  T
   9    -80.2965073 -0.675828E-08  0.345E-04    1.84      41.4  T
     SCC iter.                  ...        0 min,  0.090 sec
     gradient                   ...        0 min,  0.105 sec
 * total energy  :   -79.4776119 Eh     change       -0.3826893E-01 Eh
   gradient norm :     0.1248442 Eh/α   predicted    -0.3342045E-01 ( -12.67%)
   displ. norm   :     0.7312252 α      lambda       -0.4331254E-01
   maximum displ.:     0.2429860 α      in ANC's #27, #36, #89, ...

........................................................................
.............................. CYCLE   14 ..............................
........................................................................

 iter      E             dE          RMSdq      gap      omega  full diag
   1    -80.3175466 -0.803175E+02  0.357E-01    1.90       0.0  T
   2    -80.3182771 -0.730507E-03  0.195E-01    1.77       1.0  T
   3    -80.3182899 -0.127892E-04  0.107E-01    1.82       1.0  T
   4    -80.3184343 -0.144456E-03  0.225E-02    1.79       1.0  T
   5    -80.3184395 -0.520922E-05  0.110E-02    1.80       1.3  T
   6    -80.3184400 -0.450639E-06  0.606E-03    1.80       2.4  T
   7    -80.3184403 -0.324295E-06  0.161E-03    1.80       8.9  T
   8    -80.3184403 -0.214358E-07  0.807E-04    1.80      17.7  T
   9    -80.3184403 -0.697230E-08  0.355E-04    1.80      40.2  T
     SCC iter.                  ...        0 min,  0.189 sec
     gradient                   ...        0 min,  0.102 sec
 * total energy  :   -79.5111464 Eh     change       -0.3353453E-01 Eh
   gradient norm :     0.1181504 Eh/α   predicted    -0.3323578E-01 (  -0.89%)
   displ. norm   :     0.7969127 α      lambda       -0.4679588E-01
   maximum displ.:     0.2541026 α      in ANC's #89, #27, #87, ...

........................................................................
.............................. CYCLE   15 ..............................
........................................................................

 iter      E             dE          RMSdq      gap      omega  full diag
   1    -80.3641051 -0.803641E+02  0.408E-01    1.92       0.0  T
   2    -80.3646811 -0.575996E-03  0.233E-01    1.81       1.0  T
   3    -80.3646384  0.426811E-04  0.108E-01    1.84       1.0  T
   4    -80.3647897 -0.151270E-03  0.350E-02    1.82       1.0  T
   5    -80.3647940 -0.431360E-05  0.213E-02    1.82       1.0  T
   6    -80.3647946 -0.575112E-06  0.715E-03    1.82       2.0  T
   7    -80.3647956 -0.961493E-06  0.202E-03    1.82       7.1  T
   8    -80.3647956 -0.354929E-07  0.104E-03    1.82      13.7  T
   9    -80.3647956 -0.519921E-08  0.542E-04    1.82      26.4  T
  10    -80.3647956 -0.220874E-08  0.246E-04    1.82      58.1  T
     SCC iter.                  ...        0 min,  0.130 sec
     gradient                   ...        0 min,  0.061 sec
 * total energy  :   -79.5382463 Eh     change       -0.2709988E-01 Eh
   gradient norm :     0.1372586 Eh/α   predicted    -0.3825728E-01 (  41.17%)
   displ. norm   :     0.6135851 α      lambda       -0.3073193E-01
   maximum displ.:     0.2088589 α      in ANC's #36, #27, #89, ...

........................................................................
.............................. CYCLE   16 ..............................
........................................................................

 iter      E             dE          RMSdq      gap      omega  full diag
   1    -80.3846578 -0.803847E+02  0.235E-01    1.92       0.0  T
   2    -80.3848705 -0.212692E-03  0.133E-01    1.89       1.0  T
   3    -80.3848639  0.656522E-05  0.540E-02    1.90       1.0  T
   4    -80.3848986 -0.346920E-04  0.157E-02    1.89       1.0  T
   5    -80.3849014 -0.284660E-05  0.774E-03    1.89       1.8  T
   6    -80.3849017 -0.240544E-06  0.320E-03    1.89       4.5  T
   7    -80.3849018 -0.805837E-07  0.139E-03    1.89      10.3  T
   8    -80.3849018 -0.138402E-07  0.729E-04    1.89      19.6  T
   9    -80.3849018 -0.255913E-08  0.279E-04    1.89      51.1  T
     SCC iter.                  ...        0 min,  0.095 sec
     gradient                   ...        0 min,  0.097 sec
 * total energy  :   -79.5598742 Eh     change       -0.2162793E-01 Eh
   gradient norm :     0.0990992 Eh/α   predicted    -0.2115105E-01 (  -2.20%)
   displ. norm   :     0.7024817 α      lambda       -0.2814659E-01
   maximum displ.:     0.2608216 α      in ANC's #36, #27, #26, ...

........................................................................
.............................. CYCLE   17 ..............................
........................................................................

 iter      E             dE          RMSdq      gap      omega  full diag
   1    -80.3786479 -0.803786E+02  0.257E-01    1.87       0.0  T
   2    -80.3789222 -0.274379E-03  0.148E-01    1.86       1.0  T
   3    -80.3789155  0.672834E-05  0.570E-02    1.88       1.0  T
   4    -80.3789533 -0.377740E-04  0.133E-02    1.87       1.1  T
   5    -80.3789551 -0.176986E-05  0.734E-03    1.87       1.9  T
   6    -80.3789553 -0.203669E-06  0.392E-03    1.87       3.6  T
   7    -80.3789554 -0.142386E-06  0.137E-03    1.87      10.4  T
   8    -80.3789554 -0.837404E-08  0.702E-04    1.87      20.4  T
   9    -80.3789554 -0.232620E-08  0.338E-04    1.87      42.2  T
     SCC iter.                  ...        0 min,  0.123 sec
     gradient                   ...        0 min,  0.088 sec
 * total energy  :   -79.5755500 Eh     change       -0.1567575E-01 Eh
   gradient norm :     0.0998282 Eh/α   predicted    -0.2101819E-01 (  34.08%)
   displ. norm   :     0.6181229 α      lambda       -0.2200042E-01
   maximum displ.:     0.2348802 α      in ANC's #36, #48, #38, ...

........................................................................
.............................. CYCLE   18 ..............................
........................................................................

 iter      E             dE          RMSdq      gap      omega  full diag
   1    -80.3916573 -0.803917E+02  0.187E-01    1.97       0.0  T
   2    -80.3917690 -0.111716E-03  0.108E-01    1.96       1.0  T
   3    -80.3917634  0.559894E-05  0.381E-02    1.96       1.0  T
   4    -80.3917818 -0.184339E-04  0.103E-02    1.96       1.4  T
   5    -80.3917826 -0.761560E-06  0.536E-03    1.96       2.7  T
   6    -80.3917827 -0.633157E-07  0.267E-03    1.96       5.3  T
   7    -80.3917827 -0.679550E-07  0.710E-04    1.96      20.1  T
   8    -80.3917827 -0.596610E-08  0.320E-04    1.96      44.6  T
     SCC iter.                  ...        0 min,  0.093 sec
     gradient                   ...        0 min,  0.059 sec
 * total energy  :   -79.5919088 Eh     change       -0.1635885E-01 Eh
   gradient norm :     0.0963851 Eh/α   predicted    -0.1520315E-01 (  -7.06%)
   displ. norm   :     0.6342957 α      lambda       -0.2130525E-01
   maximum displ.:     0.2087813 α      in ANC's #48, #26, #36, ...

........................................................................
.............................. CYCLE   19 ..............................
........................................................................

 iter      E             dE          RMSdq      gap      omega  full diag
   1    -80.4236874 -0.804237E+02  0.231E-01    2.15       0.0  T
   2    -80.4241313 -0.443951E-03  0.138E-01    2.19       1.0  T
   3    -80.4241485 -0.171468E-04  0.614E-02    2.21       1.0  T
   4    -80.4241718 -0.233602E-04  0.191E-02    2.20       1.0  T
   5    -80.4241756 -0.375633E-05  0.858E-03    2.20       1.7  T
   6    -80.4241763 -0.692378E-06  0.473E-03    2.20       3.0  T
   7    -80.4241764 -0.154446E-06  0.176E-03    2.20       8.1  T
   8    -80.4241764 -0.117055E-07  0.755E-04    2.20      18.9  T
   9    -80.4241764 -0.898036E-08  0.384E-04    2.20      37.2  T
     SCC iter.                  ...        0 min,  0.148 sec
     gradient                   ...        0 min,  0.054 sec
 * total energy  :   -79.6051837 Eh     change       -0.1327493E-01 Eh
   gradient norm :     0.0902643 Eh/α   predicted    -0.1493850E-01 (  12.53%)
   displ. norm   :     0.6139257 α      lambda       -0.1591018E-01
   maximum displ.:     0.2637340 α      in ANC's #36, #26, #48, ...

........................................................................
.............................. CYCLE   20 ..............................
........................................................................

 iter      E             dE          RMSdq      gap      omega  full diag
   1    -80.4175542 -0.804176E+02  0.180E-01    2.20       0.0  T
   2    -80.4177764 -0.222214E-03  0.101E-01    2.28       1.0  T
   3    -80.4177862 -0.975007E-05  0.397E-02    2.32       1.0  T
   4    -80.4177928 -0.667053E-05  0.142E-02    2.32       1.0  T
   5    -80.4177948 -0.200895E-05  0.732E-03    2.31       2.0  T
   6    -80.4177949 -0.404287E-07  0.292E-03    2.31       4.9  T
   7    -80.4177950 -0.730709E-07  0.113E-03    2.31      12.6  T
   8    -80.4177950 -0.216114E-07  0.403E-04    2.31      35.5  T
   9    -80.4177950 -0.977650E-09  0.238E-04    2.31      60.1  T
     SCC iter.                  ...        0 min,  0.127 sec
     gradient                   ...        0 min,  0.063 sec
 * total energy  :   -79.6175689 Eh     change       -0.1238519E-01 Eh
   gradient norm :     0.0774261 Eh/α   predicted    -0.1095341E-01 ( -11.56%)
   displ. norm   :     0.6541548 α      lambda       -0.1847698E-01
   maximum displ.:     0.2399497 α      in ANC's #36, #48, #43, ...
 * RMSD in coord.:     1.3228910 α      energy gain  -0.2966997E+01 Eh

generating ANC from exact Hessian ...
Using Lindh-Hessian (1995)
 Shifting diagonal of input Hessian by    1.3649038324181129E-002
 Lowest  eigenvalues of input Hessian
    0.010000    0.013439    0.013497    0.000000    0.000000    0.000000
    0.000000    0.000000    0.000000    0.013742    0.013779    0.013908
    0.013954    0.014053    0.014283    0.014469    0.014611    0.014675
 Highest eigenvalues
    1.853585    1.903527    1.974679    2.062608    2.197198    2.339106


........................................................................
.............................. CYCLE   21 ..............................
........................................................................

 iter      E             dE          RMSdq      gap      omega  full diag
   1    -80.4247300 -0.804247E+02  0.260E-01    2.37       0.0  T
   2    -80.4251782 -0.448148E-03  0.149E-01    2.51       1.0  T
   3    -80.4252128 -0.346718E-04  0.582E-02    2.58       1.0  T
   4    -80.4252213 -0.840713E-05  0.226E-02    2.57       1.0  T
   5    -80.4252266 -0.536563E-05  0.123E-02    2.56       1.2  T
   6    -80.4252270 -0.421801E-06  0.542E-03    2.56       2.6  T
   7    -80.4252272 -0.165563E-06  0.198E-03    2.56       7.2  T
   8    -80.4252273 -0.710966E-07  0.765E-04    2.56      18.7  T
   9    -80.4252273 -0.402704E-08  0.387E-04    2.56      36.9  T
     SCC iter.                  ...        0 min,  0.106 sec
     gradient                   ...        0 min,  0.094 sec
 * total energy  :   -79.6285352 Eh     change       -0.1096632E-01 Eh
   gradient norm :     0.1050812 Eh/α   predicted     0.0000000E+00 (-100.00%)
   displ. norm   :     0.4118888 α      lambda       -0.2005223E-01
   maximum displ.:     0.1472938 α      in ANC's #1, #46, #25, ...

........................................................................
.............................. CYCLE   22 ..............................
........................................................................

 iter      E             dE          RMSdq      gap      omega  full diag
   1    -80.4456839 -0.804457E+02  0.211E-01    2.75       0.0  T
   2    -80.4458373 -0.153452E-03  0.124E-01    2.78       1.0  T
   3    -80.4458449 -0.760777E-05  0.424E-02    2.81       1.0  T
   4    -80.4458653 -0.203637E-04  0.191E-02    2.80       1.0  T
   5    -80.4458675 -0.223232E-05  0.949E-03    2.80       1.5  T
   6    -80.4458677 -0.144332E-06  0.433E-03    2.80       3.3  T
   7    -80.4458680 -0.287377E-06  0.129E-03    2.80      11.1  T
   8    -80.4458680 -0.218312E-07  0.537E-04    2.80      26.6  T
   9    -80.4458680 -0.151650E-08  0.280E-04    2.80      51.1  T
     SCC iter.                  ...        0 min,  0.092 sec
     gradient                   ...        0 min,  0.058 sec
 * total energy  :   -79.6444124 Eh     change       -0.1587720E-01 Eh
   gradient norm :     0.0742180 Eh/α   predicted    -0.1173653E-01 ( -26.08%)
   displ. norm   :     0.5194730 α      lambda       -0.2349714E-01
   maximum displ.:     0.1615718 α      in ANC's #108, #46, #1, ...

........................................................................
.............................. CYCLE   23 ..............................
........................................................................

 iter      E             dE          RMSdq      gap      omega  full diag
   1    -80.4709184 -0.804709E+02  0.278E-01    2.82       0.0  T
   2    -80.4714757 -0.557312E-03  0.160E-01    2.87       1.0  T
   3    -80.4715661 -0.903512E-04  0.754E-02    2.90       1.0  T
   4    -80.4715793 -0.132465E-04  0.362E-02    2.89       1.0  T
   5    -80.4715917 -0.123891E-04  0.172E-02    2.90       1.0  T
   6    -80.4715920 -0.342809E-06  0.706E-03    2.89       2.0  T
   7    -80.4715928 -0.722814E-06  0.220E-03    2.89       6.5  T
   8    -80.4715928 -0.762030E-07  0.939E-04    2.89      15.2  T
   9    -80.4715928 -0.439238E-08  0.490E-04    2.89      29.2  T
     SCC iter.                  ...        0 min,  0.082 sec
     gradient                   ...        0 min,  0.060 sec
 * total energy  :   -79.6614621 Eh     change       -0.1704966E-01 Eh
   gradient norm :     0.0675040 Eh/α   predicted    -0.1491897E-01 ( -12.50%)
   displ. norm   :     0.4842605 α      lambda       -0.1171078E-01
   maximum displ.:     0.1635291 α      in ANC's #1, #108, #21, ...

........................................................................
.............................. CYCLE   24 ..............................
........................................................................

 iter      E             dE          RMSdq      gap      omega  full diag
   1    -80.4822457 -0.804822E+02  0.187E-01    2.91       0.0  T
   2    -80.4823720 -0.126255E-03  0.112E-01    2.92       1.0  T
   3    -80.4823887 -0.167380E-04  0.432E-02    2.93       1.0  T
   4    -80.4823998 -0.111098E-04  0.184E-02    2.93       1.0  T
   5    -80.4824031 -0.327021E-05  0.735E-03    2.93       1.9  T
   6    -80.4824032 -0.133287E-06  0.427E-03    2.92       3.3  T
   7    -80.4824034 -0.185263E-06  0.118E-03    2.92      12.2  T
   8    -80.4824034 -0.896772E-08  0.530E-04    2.92      27.0  T
   9    -80.4824034 -0.290170E-08  0.247E-04    2.92      57.9  T
     SCC iter.                  ...        0 min,  0.119 sec
     gradient                   ...        0 min,  0.106 sec
 * total energy  :   -79.6678649 Eh     change       -0.6402766E-02 Eh
   gradient norm :     0.0659149 Eh/α   predicted    -0.7228551E-02 (  12.90%)
   displ. norm   :     0.4515374 α      lambda       -0.1003935E-01
   maximum displ.:     0.1491250 α      in ANC's #1, #25, #48, ...

........................................................................
.............................. CYCLE   25 ..............................
........................................................................

 iter      E             dE          RMSdq      gap      omega  full diag
   1    -80.4740819 -0.804741E+02  0.161E-01    2.93       0.0  T
   2    -80.4741499 -0.679451E-04  0.954E-02    2.92       1.0  T
   3    -80.4741495  0.327317E-06  0.297E-02    2.92       1.0  T
   4    -80.4741609 -0.113337E-04  0.110E-02    2.92       1.3  T
   5    -80.4741614 -0.478193E-06  0.659E-03    2.92       2.2  T
   6    -80.4741614  0.276586E-09  0.249E-03    2.92       5.7  T
   7    -80.4741614 -0.778154E-07  0.893E-04    2.92      16.0  T
   8    -80.4741614 -0.743233E-08  0.352E-04    2.92      40.5  T
     SCC iter.                  ...        0 min,  0.153 sec
     gradient                   ...        0 min,  0.093 sec
 * total energy  :   -79.6734661 Eh     change       -0.5601206E-02 Eh
   gradient norm :     0.0365726 Eh/α   predicted    -0.6043155E-02 (   7.89%)
   displ. norm   :     0.4561564 α      lambda       -0.5081823E-02
   maximum displ.:     0.1646829 α      in ANC's #17, #10, #5, ...

........................................................................
.............................. CYCLE   26 ..............................
........................................................................

 iter      E             dE          RMSdq      gap      omega  full diag
   1    -80.4853510 -0.804854E+02  0.125E-01    2.92       0.0  T
   2    -80.4853753 -0.243793E-04  0.729E-02    2.93       1.0  T
   3    -80.4853762 -0.834902E-06  0.175E-02    2.93       1.0  T
   4    -80.4853808 -0.467286E-05  0.677E-03    2.93       2.1  T
   5    -80.4853811 -0.280632E-06  0.317E-03    2.93       4.5  T
   6    -80.4853812 -0.210409E-07  0.142E-03    2.93      10.1  T
   7    -80.4853812 -0.263677E-07  0.558E-04    2.93      25.6  T
   8    -80.4853812 -0.188697E-08  0.192E-04    2.93      74.5  T
     SCC iter.                  ...        0 min,  0.114 sec
     gradient                   ...        0 min,  0.104 sec
 * total energy  :   -79.6761043 Eh     change       -0.2638180E-02 Eh
   gradient norm :     0.0391644 Eh/α   predicted    -0.3069655E-02 (  16.36%)
   displ. norm   :     0.5498126 α      lambda       -0.5045526E-02
   maximum displ.:     0.1923025 α      in ANC's #17, #24, #5, ...

........................................................................
.............................. CYCLE   27 ..............................
........................................................................

 iter      E             dE          RMSdq      gap      omega  full diag
   1    -80.4898378 -0.804898E+02  0.131E-01    2.93       0.0  T
   2    -80.4898570 -0.192535E-04  0.785E-02    2.94       1.0  T
   3    -80.4898589 -0.192098E-05  0.167E-02    2.94       1.0  T
   4    -80.4898624 -0.350111E-05  0.872E-03    2.94       1.6  T
   5    -80.4898630 -0.527997E-06  0.373E-03    2.94       3.8  T
   6    -80.4898631 -0.908907E-07  0.164E-03    2.94       8.7  T
   7    -80.4898631 -0.214913E-07  0.535E-04    2.94      26.7  T
   8    -80.4898631 -0.299123E-08  0.236E-04    2.94      60.6  T
     SCC iter.                  ...        0 min,  0.174 sec
     gradient                   ...        0 min,  0.060 sec
 * total energy  :   -79.6792935 Eh     change       -0.3189270E-02 Eh
   gradient norm :     0.0274332 Eh/α   predicted    -0.3285398E-02 (   3.01%)
   displ. norm   :     0.5758204 α      lambda       -0.3482625E-02
   maximum displ.:     0.2054181 α      in ANC's #17, #1, #10, ...

........................................................................
.............................. CYCLE   28 ..............................
........................................................................

 iter      E             dE          RMSdq      gap      omega  full diag
   1    -80.4823669 -0.804824E+02  0.130E-01    2.93       0.0  T
   2    -80.4823852 -0.183007E-04  0.774E-02    2.94       1.0  T
   3    -80.4823876 -0.233407E-05  0.161E-02    2.94       1.0  T
   4    -80.4823893 -0.169459E-05  0.844E-03    2.94       1.7  T
   5    -80.4823904 -0.111027E-05  0.253E-03    2.94       5.6  T
   6    -80.4823904 -0.419551E-07  0.119E-03    2.94      12.0  T
   7    -80.4823904 -0.420282E-08  0.442E-04    2.94      32.3  T
   8    -80.4823904 -0.333829E-08  0.185E-04    2.94      77.1  T
     SCC iter.                  ...        0 min,  0.113 sec
     gradient                   ...        0 min,  0.076 sec
 * total energy  :   -79.6804608 Eh     change       -0.1167243E-02 Eh
   gradient norm :     0.0435644 Eh/α   predicted    -0.2318684E-02 (  98.65%)
   displ. norm   :     0.4029758 α      lambda       -0.3676316E-02
   maximum displ.:     0.1549215 α      in ANC's #5, #17, #25, ...

........................................................................
.............................. CYCLE   29 ..............................
........................................................................

 iter      E             dE          RMSdq      gap      omega  full diag
   1    -80.4861408 -0.804861E+02  0.109E-01    2.93       0.0  T
   2    -80.4861531 -0.122469E-04  0.639E-02    2.94       1.0  T
   3    -80.4861540 -0.880069E-06  0.116E-02    2.94       1.2  T
   4    -80.4861561 -0.214972E-05  0.584E-03    2.94       2.4  T
   5    -80.4861564 -0.291788E-06  0.338E-03    2.94       4.2  T
   6    -80.4861564 -0.232637E-07  0.195E-03    2.94       7.3  T
   7    -80.4861564 -0.257603E-07  0.392E-04    2.94      36.4  T
   8    -80.4861565 -0.673765E-09  0.207E-04    2.94      68.9  T
     SCC iter.                  ...        0 min,  0.067 sec
     gradient                   ...        0 min,  0.060 sec
 * total energy  :   -79.6826000 Eh     change       -0.2139184E-02 Eh
   gradient norm :     0.0175449 Eh/α   predicted    -0.2136663E-02 (  -0.12%)
   displ. norm   :     0.4744659 α      lambda       -0.2117934E-02
   maximum displ.:     0.2056302 α      in ANC's #17, #5, #10, ...

........................................................................
.............................. CYCLE   30 ..............................
........................................................................

 iter      E             dE          RMSdq      gap      omega  full diag
   1    -80.4955654 -0.804956E+02  0.117E-01    2.93       0.0  T
   2    -80.4955741 -0.870783E-05  0.716E-02    2.93       1.0  T
   3    -80.4955738  0.352463E-06  0.143E-02    2.93       1.0  T
   4    -80.4955765 -0.267607E-05  0.827E-03    2.94       1.7  T
   5    -80.4955766 -0.189051E-06  0.382E-03    2.93       3.7  T
   6    -80.4955767 -0.972787E-07  0.135E-03    2.93      10.6  T
   7    -80.4955768 -0.247774E-07  0.385E-04    2.93      37.1  T
   8    -80.4955768 -0.986446E-09  0.210E-04    2.93      67.9  T
     SCC iter.                  ...        0 min,  0.168 sec
     gradient                   ...        0 min,  0.063 sec
 * total energy  :   -79.6830707 Eh     change       -0.4707199E-03 Eh
   gradient norm :     0.0310963 Eh/α   predicted    -0.1297362E-02 ( 175.61%)
   displ. norm   :     0.4214974 α      lambda       -0.2271902E-02
   maximum displ.:     0.1582988 α      in ANC's #1, #17, #5, ...

........................................................................
.............................. CYCLE   31 ..............................
........................................................................

 iter      E             dE          RMSdq      gap      omega  full diag
   1    -80.4924787 -0.804925E+02  0.934E-02    2.93       0.0  T
   2    -80.4924823 -0.355113E-05  0.571E-02    2.93       1.0  T
   3    -80.4924825 -0.201065E-06  0.113E-02    2.93       1.3  T
   4    -80.4924834 -0.920485E-06  0.722E-03    2.93       2.0  T
   5    -80.4924835 -0.158281E-06  0.245E-03    2.93       5.8  T
   6    -80.4924836 -0.492626E-07  0.784E-04    2.93      18.2  T
   7    -80.4924836 -0.119249E-07  0.279E-04    2.93      51.2  T
     SCC iter.                  ...        0 min,  0.130 sec
     gradient                   ...        0 min,  0.062 sec
 * total energy  :   -79.6845796 Eh     change       -0.1508883E-02 Eh
   gradient norm :     0.0143654 Eh/α   predicted    -0.1337766E-02 ( -11.34%)
   displ. norm   :     0.4837221 α      lambda       -0.1240794E-02
   maximum displ.:     0.1916573 α      in ANC's #5, #17, #12, ...

........................................................................
.............................. CYCLE   32 ..............................
........................................................................

 iter      E             dE          RMSdq      gap      omega  full diag
   1    -80.4892134 -0.804892E+02  0.926E-02    2.92       0.0  T
   2    -80.4892164 -0.291368E-05  0.550E-02    2.93       1.0  T
   3    -80.4892162  0.129652E-06  0.773E-03    2.93       1.8  T
   4    -80.4892172 -0.937753E-06  0.411E-03    2.93       3.5  T
   5    -80.4892173 -0.107996E-06  0.165E-03    2.93       8.6  T
   6    -80.4892173 -0.146912E-07  0.560E-04    2.93      25.5  T
   7    -80.4892173 -0.363858E-08  0.252E-04    2.93      56.6  T
     SCC iter.                  ...        0 min,  0.154 sec
     gradient                   ...        0 min,  0.060 sec
 * total energy  :   -79.6854502 Eh     change       -0.8706363E-03 Eh
   gradient norm :     0.0172514 Eh/α   predicted    -0.7655640E-03 ( -12.07%)
   displ. norm   :     0.5922039 α      lambda       -0.1474568E-02
   maximum displ.:     0.2299547 α      in ANC's #17, #5, #4, ...

........................................................................
.............................. CYCLE   33 ..............................
........................................................................

 iter      E             dE          RMSdq      gap      omega  full diag
   1    -80.4839544 -0.804840E+02  0.126E-01    2.92       0.0  T
   2    -80.4839610 -0.653682E-05  0.756E-02    2.92       1.0  T
   3    -80.4839619 -0.875276E-06  0.975E-03    2.92       1.5  T
   4    -80.4839631 -0.122569E-05  0.593E-03    2.92       2.4  T
   5    -80.4839632 -0.155821E-06  0.334E-03    2.92       4.3  T
   6    -80.4839632 -0.122392E-07  0.989E-04    2.92      14.4  T
   7    -80.4839633 -0.161846E-07  0.302E-04    2.92      47.2  T
     SCC iter.                  ...        0 min,  0.169 sec
     gradient                   ...        0 min,  0.100 sec
 * total energy  :   -79.6863012 Eh     change       -0.8510135E-03 Eh
   gradient norm :     0.0266911 Eh/α   predicted    -0.9958556E-03 (  17.02%)
   displ. norm   :     0.4840652 α      lambda       -0.1744733E-02
   maximum displ.:     0.2118627 α      in ANC's #4, #5, #17, ...

........................................................................
.............................. CYCLE   34 ..............................
........................................................................

 iter      E             dE          RMSdq      gap      omega  full diag
   1    -80.4916130 -0.804916E+02  0.112E-01    2.92       0.0  T
   2    -80.4916189 -0.591406E-05  0.667E-02    2.92       1.0  T
   3    -80.4916193 -0.423985E-06  0.884E-03    2.92       1.6  T
   4    -80.4916199 -0.606267E-06  0.549E-03    2.92       2.6  T
   5    -80.4916200 -0.889275E-07  0.317E-03    2.92       4.5  T
   6    -80.4916201 -0.428645E-07  0.847E-04    2.92      16.9  T
   7    -80.4916201 -0.838313E-08  0.277E-04    2.92      51.6  T
     SCC iter.                  ...        0 min,  0.149 sec
     gradient                   ...        0 min,  0.094 sec
 * total energy  :   -79.6874197 Eh     change       -0.1118537E-02 Eh
   gradient norm :     0.0179093 Eh/α   predicted    -0.1076781E-02 (  -3.73%)
   displ. norm   :     0.5066297 α      lambda       -0.1157245E-02
   maximum displ.:     0.2397163 α      in ANC's #4, #5, #12, ...

........................................................................
.............................. CYCLE   35 ..............................
........................................................................

 iter      E             dE          RMSdq      gap      omega  full diag
   1    -80.4923954 -0.804924E+02  0.985E-02    2.92       0.0  T
   2    -80.4924024 -0.697560E-05  0.583E-02    2.92       1.0  T
   3    -80.4924026 -0.144341E-06  0.740E-03    2.93       1.9  T
   4    -80.4924032 -0.647917E-06  0.382E-03    2.92       3.7  T
   5    -80.4924035 -0.265124E-06  0.187E-03    2.92       7.7  T
   6    -80.4924035 -0.509401E-08  0.895E-04    2.92      16.0  T
   7    -80.4924035 -0.374177E-08  0.268E-04    2.92      53.4  T
     SCC iter.                  ...        0 min,  0.546 sec
     gradient                   ...        0 min,  0.122 sec
 * total energy  :   -79.6883842 Eh     change       -0.9644107E-03 Eh
   gradient norm :     0.0121285 Eh/α   predicted    -0.7271404E-03 ( -24.60%)
   displ. norm   :     0.6388682 α      lambda       -0.1493061E-02
   maximum displ.:     0.3415327 α      in ANC's #4, #3, #22, ...

........................................................................
.............................. CYCLE   36 ..............................
........................................................................

 iter      E             dE          RMSdq      gap      omega  full diag
   1    -80.4971240 -0.804971E+02  0.128E-01    2.93       0.0  T
   2    -80.4971427 -0.187187E-04  0.751E-02    2.93       1.0  T
   3    -80.4971436 -0.854077E-06  0.104E-02    2.93       1.4  T
   4    -80.4971443 -0.704080E-06  0.429E-03    2.93       3.3  T
   5    -80.4971447 -0.361884E-06  0.212E-03    2.93       6.7  T
   6    -80.4971447 -0.113380E-07  0.113E-03    2.93      12.7  T
   7    -80.4971447 -0.728087E-08  0.332E-04    2.93      43.0  T
   8    -80.4971447 -0.142762E-08  0.125E-04    2.93     113.9  T
     SCC iter.                  ...        0 min,  1.524 sec
     gradient                   ...        0 min,  0.100 sec
 * total energy  :   -79.6894999 Eh     change       -0.1115702E-02 Eh
   gradient norm :     0.0149361 Eh/α   predicted    -0.1051230E-02 (  -5.78%)
   displ. norm   :     0.7141561 α      lambda       -0.1729389E-02
   maximum displ.:     0.4023343 α      in ANC's #4, #3, #22, ...

........................................................................
.............................. CYCLE   37 ..............................
........................................................................

 iter      E             dE          RMSdq      gap      omega  full diag
   1    -80.4988435 -0.804988E+02  0.142E-01    2.94       0.0  T
   2    -80.4988703 -0.268885E-04  0.826E-02    2.94       1.0  T
   3    -80.4988727 -0.234357E-05  0.126E-02    2.95       1.1  T
   4    -80.4988733 -0.658107E-06  0.511E-03    2.94       2.8  T
   5    -80.4988736 -0.303755E-06  0.299E-03    2.94       4.8  T
   6    -80.4988737 -0.300312E-07  0.116E-03    2.94      12.4  T
   7    -80.4988737 -0.121157E-07  0.373E-04    2.94      38.3  T
   8    -80.4988737 -0.208102E-08  0.190E-04    2.94      75.4  T
     SCC iter.                  ...        0 min,  1.350 sec
     gradient                   ...        0 min,  0.163 sec
 * total energy  :   -79.6902526 Eh     change       -0.7527414E-03 Eh
   gradient norm :     0.0334479 Eh/α   predicted    -0.1305710E-02 (  73.46%)
   displ. norm   :     0.5355056 α      lambda       -0.2024295E-02
   maximum displ.:     0.2717721 α      in ANC's #4, #3, #12, ...

........................................................................
.............................. CYCLE   38 ..............................
........................................................................

 iter      E             dE          RMSdq      gap      omega  full diag
   1    -80.4866107 -0.804866E+02  0.137E-01    2.95       0.0  T
   2    -80.4866233 -0.125476E-04  0.817E-02    2.95       1.0  T
   3    -80.4866268 -0.353484E-05  0.103E-02    2.95       1.4  T
   4    -80.4866272 -0.425917E-06  0.610E-03    2.95       2.3  T
   5    -80.4866273 -0.724987E-07  0.342E-03    2.95       4.2  T
   6    -80.4866274 -0.921309E-07  0.113E-03    2.95      12.6  T
   7    -80.4866274 -0.103897E-07  0.461E-04    2.95      31.0  T
   8    -80.4866274 -0.120714E-08  0.264E-04    2.95      54.0  T
     SCC iter.                  ...        0 min,  0.489 sec
     gradient                   ...        0 min,  0.115 sec
 * total energy  :   -79.6908681 Eh     change       -0.6154992E-03 Eh
   gradient norm :     0.0392042 Eh/α   predicted    -0.1302399E-02 ( 111.60%)
   displ. norm   :     0.3014911 α      lambda       -0.3033243E-02
   maximum displ.:     0.1526711 α      in ANC's #4, #23, #3, ...

........................................................................
.............................. CYCLE   39 ..............................
........................................................................

 iter      E             dE          RMSdq      gap      omega  full diag
   1    -80.4927047 -0.804927E+02  0.972E-02    2.96       0.0  T
   2    -80.4927131 -0.843710E-05  0.576E-02    2.96       1.0  T
   3    -80.4927159 -0.279357E-05  0.710E-03    2.96       2.0  T
   4    -80.4927162 -0.280412E-06  0.377E-03    2.96       3.8  T
   5    -80.4927162 -0.575159E-07  0.186E-03    2.96       7.7  T
   6    -80.4927163 -0.358154E-07  0.777E-04    2.96      18.4  T
   7    -80.4927163 -0.473605E-08  0.277E-04    2.96      51.6  T
     SCC iter.                  ...        0 min,  0.208 sec
     gradient                   ...        0 min,  0.109 sec
 * total energy  :   -79.6915907 Eh     change       -0.7226061E-03 Eh
   gradient norm :     0.0397210 Eh/α   predicted    -0.1654484E-02 ( 128.96%)
   displ. norm   :     0.3569054 α      lambda       -0.2465411E-02
   maximum displ.:     0.2020692 α      in ANC's #4, #22, #3, ...

........................................................................
.............................. CYCLE   40 ..............................
........................................................................

 iter      E             dE          RMSdq      gap      omega  full diag
   1    -80.5021817 -0.805022E+02  0.897E-02    2.98       0.0  T
   2    -80.5021993 -0.175452E-04  0.514E-02    2.98       1.0  T
   3    -80.5022004 -0.110809E-05  0.113E-02    2.98       1.3  T
   4    -80.5022010 -0.610995E-06  0.365E-03    2.98       3.9  T
   5    -80.5022012 -0.189068E-06  0.189E-03    2.98       7.6  T
   6    -80.5022012 -0.182630E-07  0.789E-04    2.98      18.1  T
   7    -80.5022012 -0.464962E-08  0.321E-04    2.98      44.5  T
     SCC iter.                  ...        0 min,  0.211 sec
     gradient                   ...        0 min,  0.096 sec
 * total energy  :   -79.6931608 Eh     change       -0.1570119E-02 Eh
   gradient norm :     0.0140602 Eh/α   predicted    -0.1389729E-02 ( -11.49%)
   displ. norm   :     0.7215243 α      lambda       -0.1846935E-02
   maximum displ.:     0.4057719 α      in ANC's #4, #3, #22, ...

........................................................................
.............................. CYCLE   41 ..............................
........................................................................

 iter      E             dE          RMSdq      gap      omega  full diag
   1    -80.4919395 -0.804919E+02  0.148E-01    2.99       0.0  T
   2    -80.4919577 -0.182229E-04  0.864E-02    2.99       1.0  T
   3    -80.4919598 -0.205093E-05  0.113E-02    2.99       1.3  T
   4    -80.4919605 -0.728517E-06  0.572E-03    2.99       2.5  T
   5    -80.4919608 -0.314217E-06  0.347E-03    2.99       4.1  T
   6    -80.4919608 -0.265997E-07  0.103E-03    2.99      13.9  T
   7    -80.4919608 -0.913884E-08  0.461E-04    2.99      31.0  T
   8    -80.4919608 -0.290213E-08  0.203E-04    2.99      70.3  T
     SCC iter.                  ...        0 min,  0.271 sec
     gradient                   ...        0 min,  0.091 sec
 * total energy  :   -79.6942007 Eh     change       -0.1039904E-02 Eh
   gradient norm :     0.0273719 Eh/α   predicted    -0.1404225E-02 (  35.03%)
   displ. norm   :     0.5878325 α      lambda       -0.2472979E-02
   maximum displ.:     0.2828086 α      in ANC's #4, #23, #22, ...

........................................................................
.............................. CYCLE   42 ..............................
........................................................................

 iter      E             dE          RMSdq      gap      omega  full diag
   1    -80.5026008 -0.805026E+02  0.157E-01    3.02       0.0  T
   2    -80.5026321 -0.312882E-04  0.925E-02    3.02       1.0  T
   3    -80.5026346 -0.249322E-05  0.180E-02    3.03       1.0  T
   4    -80.5026366 -0.204070E-05  0.999E-03    3.02       1.4  T
   5    -80.5026372 -0.573397E-06  0.607E-03    3.03       2.4  T
   6    -80.5026372 -0.462368E-07  0.138E-03    3.03      10.4  T
   7    -80.5026373 -0.486327E-07  0.468E-04    3.03      30.5  T
   8    -80.5026373 -0.374193E-08  0.202E-04    3.03      70.6  T
     SCC iter.                  ...        0 min,  0.215 sec
     gradient                   ...        0 min,  0.060 sec
 * total energy  :   -79.6951684 Eh     change       -0.9676994E-03 Eh
   gradient norm :     0.0402026 Eh/α   predicted    -0.1663761E-02 (  71.93%)
   displ. norm   :     0.4699238 α      lambda       -0.3045576E-02
   maximum displ.:     0.2558936 α      in ANC's #4, #3, #19, ...
 * RMSD in coord.:     1.1383745 α      energy gain  -0.7759950E-01 Eh

generating ANC from exact Hessian ...
Using Lindh-Hessian (1995)
 Shifting diagonal of input Hessian by    1.0313717412402865E-002
 Lowest  eigenvalues of input Hessian
    0.010000    0.010128    0.010154    0.000000    0.000000    0.000000
    0.000000    0.000000    0.000000    0.010461    0.010601    0.010733
    0.010863    0.010978    0.011014    0.011101    0.011298    0.011334
 Highest eigenvalues
    1.883172    1.892231    1.962239    2.064304    2.267663    2.356634


........................................................................
.............................. CYCLE   43 ..............................
........................................................................

 iter      E             dE          RMSdq      gap      omega  full diag
   1    -80.4996304 -0.804996E+02  0.129E-01    3.03       0.0  T
   2    -80.4996422 -0.117667E-04  0.768E-02    3.03       1.0  T
   3    -80.4996438 -0.164807E-05  0.122E-02    3.04       1.2  T
   4    -80.4996449 -0.111187E-05  0.623E-03    3.03       2.3  T
   5    -80.4996452 -0.238849E-06  0.327E-03    3.03       4.4  T
   6    -80.4996452 -0.463169E-07  0.988E-04    3.03      14.5  T
   7    -80.4996452 -0.122754E-07  0.402E-04    3.03      35.6  T
     SCC iter.                  ...        0 min,  0.175 sec
     gradient                   ...        0 min,  0.098 sec
 * total energy  :   -79.6962379 Eh     change       -0.1069508E-02 Eh
   gradient norm :     0.0332719 Eh/α   predicted     0.0000000E+00 (-100.00%)
   displ. norm   :     0.2195348 α      lambda       -0.1796456E-02
   maximum displ.:     0.1033008 α      in ANC's #25, #4, #20, ...

........................................................................
.............................. CYCLE   44 ..............................
........................................................................

 iter      E             dE          RMSdq      gap      omega  full diag
   1    -80.5036560 -0.805037E+02  0.646E-02    3.03       0.0  T
   2    -80.5036599 -0.386233E-05  0.380E-02    3.04       1.0  T
   3    -80.5036603 -0.370474E-06  0.536E-03    3.04       2.7  T
   4    -80.5036605 -0.223670E-06  0.287E-03    3.04       5.0  T
   5    -80.5036606 -0.823148E-07  0.171E-03    3.04       8.4  T
   6    -80.5036606 -0.855594E-08  0.686E-04    3.04      20.8  T
   7    -80.5036606 -0.442692E-08  0.254E-04    3.04      56.2  T
     SCC iter.                  ...        0 min,  0.075 sec
     gradient                   ...        0 min,  0.094 sec
 * total energy  :   -79.6976341 Eh     change       -0.1396156E-02 Eh
   gradient norm :     0.0112023 Eh/α   predicted    -0.9415755E-03 ( -32.56%)
   displ. norm   :     0.4649936 α      lambda       -0.1793360E-02
   maximum displ.:     0.2270231 α      in ANC's #25, #4, #20, ...

........................................................................
.............................. CYCLE   45 ..............................
........................................................................

 iter      E             dE          RMSdq      gap      omega  full diag
   1    -80.5062888 -0.805063E+02  0.117E-01    3.04       0.0  T
   2    -80.5062985 -0.968323E-05  0.685E-02    3.04       1.0  T
   3    -80.5062993 -0.796931E-06  0.774E-03    3.05       1.8  T
   4    -80.5062996 -0.361826E-06  0.377E-03    3.05       3.8  T
   5    -80.5062998 -0.180420E-06  0.220E-03    3.05       6.5  T
   6    -80.5062998 -0.135973E-07  0.839E-04    3.05      17.0  T
   7    -80.5062998 -0.554653E-08  0.363E-04    3.05      39.4  T
     SCC iter.                  ...        0 min,  0.082 sec
     gradient                   ...        0 min,  0.054 sec
 * total energy  :   -79.6989354 Eh     change       -0.1301273E-02 Eh
   gradient norm :     0.0171894 Eh/α   predicted    -0.1090634E-02 ( -16.19%)
   displ. norm   :     0.5539983 α      lambda       -0.1480232E-02
   maximum displ.:     0.2849959 α      in ANC's #25, #4, #13, ...

........................................................................
.............................. CYCLE   46 ..............................
........................................................................

 iter      E             dE          RMSdq      gap      omega  full diag
   1    -80.5058700 -0.805059E+02  0.127E-01    3.06       0.0  T
   2    -80.5058805 -0.105350E-04  0.748E-02    3.06       1.0  T
   3    -80.5058815 -0.994218E-06  0.727E-03    3.06       2.0  T
   4    -80.5058818 -0.256286E-06  0.308E-03    3.06       4.6  T
   5    -80.5058819 -0.126642E-06  0.178E-03    3.06       8.0  T
   6    -80.5058819 -0.141293E-07  0.576E-04    3.06      24.8  T
   7    -80.5058819 -0.170081E-08  0.279E-04    3.06      51.3  T
     SCC iter.                  ...        0 min,  0.148 sec
     gradient                   ...        0 min,  0.101 sec
 * total energy  :   -79.7002881 Eh     change       -0.1352789E-02 Eh
   gradient norm :     0.0257753 Eh/α   predicted    -0.9672738E-03 ( -28.50%)
   displ. norm   :     0.8028491 α      lambda       -0.2519624E-02
   maximum displ.:     0.4235399 α      in ANC's #25, #4, #28, ...

........................................................................
.............................. CYCLE   47 ..............................
........................................................................

 iter      E             dE          RMSdq      gap      omega  full diag
   1    -80.5009369 -0.805009E+02  0.188E-01    3.08       0.0  T
   2    -80.5009550 -0.180073E-04  0.111E-01    3.08       1.0  T
   3    -80.5009576 -0.263620E-05  0.944E-03    3.08       1.5  T
   4    -80.5009581 -0.488297E-06  0.430E-03    3.08       3.3  T
   5    -80.5009582 -0.153641E-06  0.238E-03    3.08       6.0  T
   6    -80.5009583 -0.415619E-07  0.648E-04    3.08      22.1  T
   7    -80.5009583 -0.384556E-08  0.297E-04    3.08      48.1  T
     SCC iter.                  ...        0 min,  0.079 sec
     gradient                   ...        0 min,  0.071 sec
 * total energy  :   -79.7024366 Eh     change       -0.2148419E-02 Eh
   gradient norm :     0.0225879 Eh/α   predicted    -0.2071859E-02 (  -3.56%)
   displ. norm   :     0.6681171 α      lambda       -0.2406880E-02
   maximum displ.:     0.3512466 α      in ANC's #25, #4, #28, ...

........................................................................
.............................. CYCLE   48 ..............................
........................................................................

 iter      E             dE          RMSdq      gap      omega  full diag
   1    -80.5014244 -0.805014E+02  0.159E-01    3.11       0.0  T
   2    -80.5014382 -0.138032E-04  0.934E-02    3.11       1.0  T
   3    -80.5014395 -0.127752E-05  0.864E-03    3.11       1.7  T
   4    -80.5014401 -0.650595E-06  0.379E-03    3.11       3.8  T
   5    -80.5014403 -0.223108E-06  0.206E-03    3.11       6.9  T
   6    -80.5014404 -0.114161E-07  0.702E-04    3.11      20.3  T
   7    -80.5014404 -0.930686E-08  0.241E-04    3.11      59.2  T
     SCC iter.                  ...        0 min,  0.059 sec
     gradient                   ...        0 min,  0.060 sec
 * total energy  :   -79.7043629 Eh     change       -0.1926305E-02 Eh
   gradient norm :     0.0204360 Eh/α   predicted    -0.1740634E-02 (  -9.64%)
   displ. norm   :     0.5679650 α      lambda       -0.2669211E-02
   maximum displ.:     0.2833077 α      in ANC's #25, #4, #3, ...

........................................................................
.............................. CYCLE   49 ..............................
........................................................................

 iter      E             dE          RMSdq      gap      omega  full diag
   1    -80.5147913 -0.805148E+02  0.147E-01    3.14       0.0  T
   2    -80.5148075 -0.162590E-04  0.861E-02    3.14       1.0  T
   3    -80.5148080 -0.417419E-06  0.115E-02    3.14       1.2  T
   4    -80.5148094 -0.138509E-05  0.478E-03    3.14       3.0  T
   5    -80.5148096 -0.296526E-06  0.259E-03    3.14       5.5  T
   6    -80.5148097 -0.205790E-07  0.104E-03    3.14      13.8  T
   7    -80.5148097 -0.140236E-07  0.324E-04    3.14      44.1  T
   8    -80.5148097 -0.813600E-09  0.143E-04    3.14     100.2  T
     SCC iter.                  ...        0 min,  0.101 sec
     gradient                   ...        0 min,  0.101 sec
 * total energy  :   -79.7061548 Eh     change       -0.1791974E-02 Eh
   gradient norm :     0.0176175 Eh/α   predicted    -0.1765143E-02 (  -1.50%)
   displ. norm   :     0.7604238 α      lambda       -0.2322314E-02
   maximum displ.:     0.3920199 α      in ANC's #25, #4, #20, ...

........................................................................
.............................. CYCLE   50 ..............................
[...]
          :  # electrons                       134          :
          :  max. iterations                   250          :
          :  Hamiltonian                  GFN2-xTB          :
          :  restarted?                      false          :
          :  GBSA solvation                   true          :
          :  PC potential                    false          :
          :  electronic temp.          300.0000000     K    :
          :  accuracy                    1.0000000          :
          :  -> integral cutoff          0.2500000E+02      :
          :  -> integral neglect         0.1000000E-07      :
          :  -> SCF convergence          0.1000000E-05 Eh   :
          :  -> wf. convergence          0.1000000E-03 e    :
          :  Broyden damping             0.4000000          :
          :  net charge                          2          :
          :  unpaired electrons                  0          :
          ...................................................

 iter      E             dE          RMSdq      gap      omega  full diag
   1    -80.5376347 -0.805376E+02  0.969E-05    3.29       0.0  T
   2    -80.5376347 -0.221831E-10  0.594E-05    3.29     240.4  T
   3    -80.5376347  0.598277E-11  0.325E-05    3.29     439.2  T

   *** convergence criteria satisfied after 3 iterations ***

         #    Occupation            Energy/Eh            Energy/eV
      -------------------------------------------------------------
         1        2.0000           -0.7625377             -20.7497
       ...           ...                  ...                  ...
        61        2.0000           -0.4480667             -12.1925
        62        2.0000           -0.4459104             -12.1338
        63        2.0000           -0.4434933             -12.0681
        64        2.0000           -0.4393647             -11.9557
        65        2.0000           -0.4345483             -11.8247
        66        2.0000           -0.4343505             -11.8193
        67        2.0000           -0.4216426             -11.4735 (HOMO)
        68                         -0.3007962              -8.1851 (LUMO)
        69                         -0.2522269              -6.8634
        70                         -0.2510464              -6.8313
        71                         -0.2048472              -5.5742
        72                         -0.1669889              -4.5440
       ...                                ...                  ...
       118                          1.2117964              32.9747
      -------------------------------------------------------------
                  HL-Gap            0.1208464 Eh            3.2884 eV
             Fermi-level           -0.3612194 Eh           -9.8293 eV

 SCC (total)                   0 d,  0 h,  0 min,  0.156 sec
 SCC setup                      ...        0 min,  0.004 sec (  2.378%)
 Dispersion                     ...        0 min,  0.001 sec (  0.450%)
 classical contributions        ...        0 min,  0.000 sec (  0.144%)
 integral evaluation            ...        0 min,  0.013 sec (  8.380%)
 iterations                     ...        0 min,  0.069 sec ( 43.799%)
 molecular gradient             ...        0 min,  0.067 sec ( 43.107%)
 printout                       ...        0 min,  0.001 sec (  0.429%)

         :::::::::::::::::::::::::::::::::::::::::::::::::::::
         ::                     SUMMARY                     ::
         :::::::::::::::::::::::::::::::::::::::::::::::::::::
         :: total energy             -79.725515858967 Eh    ::
         :: total w/o Gsasa/hb       -79.666491740266 Eh    ::
         :: gradient norm              0.000285893188 Eh/a0 ::
         :: HOMO-LUMO gap              3.288397733822 eV    ::
         ::.................................................::
         :: SCC energy               -80.537319296720 Eh    ::
         :: -> isotropic ES            0.584885159894 Eh    ::
         :: -> anisotropic ES         -0.031472986939 Eh    ::
         :: -> anisotropic XC          0.014285142975 Eh    ::
         :: -> dispersion             -0.040409440786 Eh    ::
         :: -> Gsolv                  -0.356024819646 Eh    ::
         ::    -> Gelec               -0.297000700946 Eh    ::
         ::    -> Gsasa                0.002167789106 Eh    ::
         ::    -> Ghb                 -0.062272667504 Eh    ::
         ::    -> Gshift               0.001080759698 Eh    ::
         :: repulsion energy           0.811803437753 Eh    ::
         :: add. restraining           0.000000000000 Eh    ::
         :: total charge               2.000000000000 e     ::
         :::::::::::::::::::::::::::::::::::::::::::::::::::::

           -------------------------------------------------
          |                Property Printout                |
           -------------------------------------------------

    * Orbital Energies and Occupations

         #    Occupation            Energy/Eh            Energy/eV
      -------------------------------------------------------------
         1        2.0000           -0.7625377             -20.7497
       ...           ...                  ...                  ...
        55        2.0000           -0.4644741             -12.6390
        56        2.0000           -0.4621674             -12.5762
        57        2.0000           -0.4608049             -12.5391
        58        2.0000           -0.4578890             -12.4598
        59        2.0000           -0.4572721             -12.4430
        60        2.0000           -0.4557422             -12.4014
        61        2.0000           -0.4480667             -12.1925
        62        2.0000           -0.4459104             -12.1338
        63        2.0000           -0.4434933             -12.0681
        64        2.0000           -0.4393647             -11.9557
        65        2.0000           -0.4345483             -11.8247
        66        2.0000           -0.4343505             -11.8193
        67        2.0000           -0.4216426             -11.4735 (HOMO)
        68                         -0.3007962              -8.1851 (LUMO)
        69                         -0.2522269              -6.8634
        70                         -0.2510464              -6.8313
        71                         -0.2048472              -5.5742
        72                         -0.1669889              -4.5440
        73                         -0.1120217              -3.0483
        74                         -0.0169053              -0.4600
        75                         -0.0119870              -0.3262
        76                          0.0226680               0.6168
        77                          0.0322391               0.8773
        78                          0.0434393               1.1820
       ...                                ...                  ...
       118                          1.2117964              32.9747
      -------------------------------------------------------------
                  HL-Gap            0.1208464 Eh            3.2884 eV
             Fermi-level           -0.3612194 Eh           -9.8293 eV

     #   Z          covCN         q      C6AA      α(0)
     1   6 C        2.971    -0.014    28.352     8.734
     2   6 C        2.919    -0.026    28.650     8.777
     3   6 C        2.923    -0.026    28.658     8.779
     4   6 C        2.973    -0.013    28.340     8.732
     5   6 C        2.919    -0.022    28.552     8.762
     6   6 C        2.922    -0.018    28.468     8.750
     7   1 H        0.926     0.068     2.111     2.272
     8   1 H        0.926     0.113     1.672     2.022
     9   1 H        0.926     0.080     1.976     2.198
    10   1 H        0.926     0.049     2.333     2.389
    11   6 C        2.707     0.364    20.833     7.471
    12   8 O        0.857    -0.484    23.433     6.490
    13   8 O        1.703    -0.271    18.498     5.807
    14   6 C        3.682     0.066    19.675     6.352
    15   6 C        3.751    -0.135    23.160     6.863
    16   1 H        0.924     0.072     2.069     2.249
    17   1 H        0.924     0.084     1.942     2.179
    18   1 H        0.925     0.084     1.943     2.180
    19   1 H        0.925     0.061     2.189     2.313
    20   1 H        0.925     0.065     2.137     2.286
    21   6 C        2.721     0.359    20.908     7.485
    22   8 O        0.857    -0.452    22.738     6.393
    23   8 O        1.703    -0.261    18.333     5.781
    24   6 C        3.694     0.058    19.776     6.362
    25   6 C        3.750    -0.152    23.496     6.913
    26   1 H        0.924     0.071     2.078     2.255
    27   1 H        0.924     0.091     1.870     2.138
    28   1 H        0.925     0.081     1.972     2.196
    29   1 H        0.925     0.057     2.236     2.338
    30   1 H        0.925     0.116     1.642     2.004
    31  48 Cd       4.129     0.457   190.583    26.498
    32   8 O        2.311    -0.531    23.519     6.550
    33   1 H        0.805     0.403     0.480     1.088
    34   1 H        0.808     0.384     0.515     1.127
    35   8 O        2.290    -0.561    24.179     6.641
    36   1 H        0.805     0.403     0.479     1.087
    37   1 H        0.805     0.399     0.486     1.095
    38   8 O        2.286    -0.562    24.204     6.645
    39   1 H        0.805     0.404     0.478     1.086
    40   1 H        0.805     0.399     0.487     1.096
    41   8 O        2.297    -0.536    23.631     6.565
    42   1 H        0.805     0.398     0.489     1.098
    43   1 H        0.805     0.393     0.497     1.108
    44   8 O        2.286    -0.554    24.024     6.620
    45   1 H        0.805     0.399     0.487     1.096
    46   1 H        0.805     0.401     0.482     1.091
    47   8 O        2.304    -0.542    23.752     6.582
    48   1 H        0.805     0.385     0.513     1.126
    49   1 H        0.805     0.401     0.483     1.091

 Mol. C6AA /au·bohr⁶  :      22054.664459
 Mol. C8AA /au·bohr⁸  :     580116.255007
 Mol. α(0) /au        :        228.761996


Wiberg/Mayer (AO) data.
largest (>0.10) Wiberg bond orders for each atom

 ---------------------------------------------------------------------------
     #   Z sym  total        # sym  WBO       # sym  WBO       # sym  WBO
 ---------------------------------------------------------------------------
     1   6 C    3.983 --     6 C    1.391     2 C    1.389    11 C    0.971
     2   6 C    3.985 --     3 C    1.456     1 C    1.389     7 H    0.965
                             5 C    0.106
     3   6 C    3.978 --     2 C    1.456     4 C    1.382     8 H    0.956
                             6 C    0.105
     4   6 C    3.987 --     3 C    1.382     5 C    1.380    21 C    1.012
     5   6 C    3.985 --     6 C    1.459     4 C    1.380     9 H    0.963
                             2 C    0.106
     6   6 C    3.989 --     5 C    1.459     1 C    1.391    10 H    0.968
                             3 C    0.105
     7   1 H    0.995 --     2 C    0.965
     8   1 H    0.986 --     3 C    0.956
     9   1 H    0.993 --     5 C    0.963
    10   1 H    0.997 --     6 C    0.968
    11   6 C    3.899 --    12 O    1.677    13 O    1.176     1 C    0.971
    12   8 O    1.976 --    11 C    1.677    13 O    0.166
    13   8 O    2.330 --    11 C    1.176    14 C    0.908    12 O    0.166
    14   6 C    3.896 --    15 C    1.016    16 H    0.966    17 H    0.964
                            13 O    0.908
    15   6 C    3.985 --    14 C    1.016    19 H    0.985    20 H    0.984
                            18 H    0.977
    16   1 H    0.995 --    14 C    0.966
    17   1 H    0.993 --    14 C    0.964
    18   1 H    0.992 --    15 C    0.977
    19   1 H    0.996 --    15 C    0.985
    20   1 H    0.995 --    15 C    0.984
    21   6 C    3.920 --    22 O    1.601    23 O    1.209     4 C    1.012
    22   8 O    1.989 --    21 C    1.601    23 O    0.171
    23   8 O    2.354 --    21 C    1.209    24 C    0.900    22 O    0.171
    24   6 C    3.888 --    25 C    1.010    26 H    0.972    27 H    0.962
                            23 O    0.900
    25   6 C    3.976 --    24 C    1.010    29 H    0.985    28 H    0.977
                            30 H    0.960
    26   1 H    0.994 --    24 C    0.972
    27   1 H    0.991 --    24 C    0.962
    28   1 H    0.993 --    25 C    0.977
    29   1 H    0.997 --    25 C    0.985
    30   1 H    0.986 --    25 C    0.960
    31  48 Cd   2.144 --    32 O    0.345    47 O    0.340    41 O    0.333
                            44 O    0.325    35 O    0.322    38 O    0.322
    32   8 O    2.132 --    33 H    0.827    34 H    0.813    31 Cd   0.345
    33   1 H    0.838 --    32 O    0.827
    34   1 H    0.853 --    32 O    0.813
    35   8 O    2.080 --    37 H    0.831    36 H    0.826    31 Cd   0.322
    36   1 H    0.837 --    35 O    0.826
    37   1 H    0.841 --    35 O    0.831
    38   8 O    2.079 --    40 H    0.831    39 H    0.825    31 Cd   0.322
    39   1 H    0.837 --    38 O    0.825
    40   1 H    0.841 --    38 O    0.831
    41   8 O    2.113 --    43 H    0.835    42 H    0.831    31 Cd   0.333
    42   1 H    0.842 --    41 O    0.831
    43   1 H    0.845 --    41 O    0.835
    44   8 O    2.092 --    45 H    0.831    46 H    0.829    31 Cd   0.325
    45   1 H    0.841 --    44 O    0.831
    46   1 H    0.839 --    44 O    0.829
    47   8 O    2.114 --    49 H    0.828    48 H    0.815    31 Cd   0.340
    48   1 H    0.852 --    47 O    0.815
    49   1 H    0.839 --    47 O    0.828
 ---------------------------------------------------------------------------

Topologies differ in total number of bonds
Writing topology from bond orders to xtbtopo.mol

molecular dipole:
                 x           y           z       tot (Debye)
 q only:      -25.996       1.367       5.245
   full:      -25.547       1.354       4.871      66.194
molecular quadrupole (traceless):
                xx          xy          yy          xz          yz          zz
 q only:      284.534     -15.134    -131.106     -47.372       9.110    -153.428
  q+dip:      281.330     -20.175    -125.902     -43.270       6.800    -155.428
   full:      279.342     -19.650    -128.164     -42.992       7.390    -151.178

           -------------------------------------------------
          |                Geometry Summary                 |
           -------------------------------------------------

      molecular mass/u    :      442.7408973
   center of mass at/Å    :       -3.2755152       0.0657296       0.2122148
  moments of inertia/u·Å² :        0.1431757E+04   0.7525392E+04   0.8329726E+04
rotational constants/cm⁻¹ :        0.1177409E-01   0.2240100E-02   0.2023792E-02

 * 46 selected distances

     #   Z          #   Z                                           value/Å
     1   6 C        2   6 C                                       1.3935363
     2   6 C        3   6 C                                       1.3804784
     3   6 C        4   6 C                                       1.3940335
     4   6 C        5   6 C                                       1.3935096
     1   6 C        6   6 C                                       1.3934030
     5   6 C        6   6 C                                       1.3809351
     2   6 C        7   1 H                                       1.0785107
     3   6 C        8   1 H                                       1.0777519
     5   6 C        9   1 H                                       1.0780449
     6   6 C       10   1 H                                       1.0791883
    11   6 C       12   8 O                                       1.2169430
    11   6 C       13   8 O                                       1.3226530
    13   8 O       14   6 C                                       1.4388046
    14   6 C       15   6 C                                       1.5202896
    14   6 C       16   1 H                                       1.0924796
    14   6 C       17   1 H                                       1.0933359
    15   6 C       18   1 H                                       1.0849760
Note: The following floating-point exceptions are signalling: IEEE_UNDERFLOW_FLAG IEEE_DENORMAL
normal termination of xtb
    15   6 C       19   1 H                                       1.0865006
    15   6 C       20   1 H                                       1.0860759
    21   6 C       22   8 O                                       1.2239552
    21   6 C       23   8 O                                       1.3113864
    23   8 O       24   6 C                                       1.4432631
    24   6 C       25   6 C                                       1.5225249
    24   6 C       26   1 H                                       1.0904802
    24   6 C       27   1 H                                       1.0926483
    25   6 C       28   1 H                                       1.0845558
    25   6 C       29   1 H                                       1.0872875
    25   6 C       30   1 H                                       1.0865878
    31  48 Cd      32   8 O                                       2.1108838
    32   8 O       33   1 H                                       0.9679770
    32   8 O       34   1 H                                       0.9742339
    31  48 Cd      35   8 O                                       2.1612692
    35   8 O       36   1 H                                       0.9664607 (min)
    35   8 O       37   1 H                                       0.9667483
    31  48 Cd      38   8 O                                       2.1695032
    38   8 O       39   1 H                                       0.9665433
    38   8 O       40   1 H                                       0.9675158
    31  48 Cd      41   8 O                                       2.1475232
    41   8 O       42   1 H                                       0.9674874
    41   8 O       43   1 H                                       0.9679152
    31  48 Cd      44   8 O                                       2.1699848 (max)
    44   8 O       45   1 H                                       0.9670886
    44   8 O       46   1 H                                       0.9676421
    31  48 Cd      47   8 O                                       2.1281764
    47   8 O       48   1 H                                       0.9739936
    47   8 O       49   1 H                                       0.9664815

 * 5 distinct bonds (by element types)

   Z      Z             #   av. dist./Å        max./Å        min./Å
   1 H    6 C          14     1.0856017     1.0933359     1.0777519
   6 C    6 C           8     1.4223388     1.5225249     1.3804784
   1 H    8 O          12     0.9683406     0.9742339     0.9664607
   6 C    8 O           6     1.3261676     1.4432631     1.2169430
   8 O   48 Cd          6     2.1478901     2.1699848     2.1108838


optimized geometry written to: xtbopt.xyz


           -------------------------------------------------
          | TOTAL ENERGY              -79.725515858967 Eh   |
          | GRADIENT NORM               0.000285893188 Eh/α |
          | HOMO-LUMO GAP               3.288397733822 eV   |
           -------------------------------------------------

------------------------------------------------------------------------
 * finished run on 2026/05/26 at 02:20:47.719     
------------------------------------------------------------------------
 total:
 * wall-time:     0 d,  0 h,  0 min, 37.696 sec
 *  cpu-time:     0 d,  0 h,  1 min,  3.351 sec
 * ratio c/w:     1.681 speedup
 SCF:
 * wall-time:     0 d,  0 h,  0 min,  0.527 sec
 *  cpu-time:     0 d,  0 h,  0 min,  0.913 sec
 * ratio c/w:     1.733 speedup
 ANC optimizer:
 * wall-time:     0 d,  0 h,  0 min, 37.124 sec
 *  cpu-time:     0 d,  0 h,  1 min,  2.351 sec
 * ratio c/w:     1.680 speedup

