      -----------------------------------------------------------      
     |                   =====================                   |     
     |                           x T B                           |     
     |                   =====================                   |     
     |                         S. Grimme                         |     
     |          Mulliken Center for Theoretical Chemistry        |     
     |                    University of Bonn                     |     
      -----------------------------------------------------------      

   * xtb version 6.7.1 (edcfbbe) compiled by 'conda@c0858423619e' on 2025-09-04

   xtb is free software: you can redistribute it and/or modify it under
   the terms of the GNU Lesser General Public License as published by
   the Free Software Foundation, either version 3 of the License, or
   (at your option) any later version.
   
   xtb is distributed in the hope that it will be useful,
   but WITHOUT ANY WARRANTY; without even the implied warranty of
   MERCHANTABILITY or FITNESS FOR A PARTICULAR PURPOSE.  See the
   GNU Lesser General Public License for more details.
   
   Cite this work as:
   * C. Bannwarth, E. Caldeweyher, S. Ehlert, A. Hansen, P. Pracht,
     J. Seibert, S. Spicher, S. Grimme, WIREs Comput. Mol. Sci., 2020, 11,
     e01493. DOI: 10.1002/wcms.1493
   
   for GFN2-xTB:
   * C. Bannwarth, S. Ehlert and S. Grimme., J. Chem. Theory Comput., 2019,
     15, 1652-1671. DOI: 10.1021/acs.jctc.8b01176
   for GFN1-xTB:
   * S. Grimme, C. Bannwarth, P. Shushkov, J. Chem. Theory Comput., 2017,
     13, 1989-2009. DOI: 10.1021/acs.jctc.7b00118
   for GFN0-xTB:
   * P. Pracht, E. Caldeweyher, S. Ehlert, S. Grimme, ChemRxiv, 2019, preprint.
     DOI: 10.26434/chemrxiv.8326202.v1
   for GFN-FF:
   * S. Spicher and S. Grimme, Angew. Chem. Int. Ed., 2020, 59, 15665-15673.
     DOI: 10.1002/anie.202004239
   
   for ALPB and GBSA implicit solvation:
   * S. Ehlert, M. Stahn, S. Spicher, S. Grimme, J. Chem. Theory Comput.,
     2021, 17, 4250-4261. DOI: 10.1021/acs.jctc.1c00471
   
   for ddCOSMO and CPCM-X implicit solvation:
   * M. Stahn, S. Ehlert, S. Grimme, J. Phys. Chem. A,
     2023, XX, XXXX-XXXX. DOI: 10.1021/acs.jpca.3c04382
   
   for DFT-D4:
   * E. Caldeweyher, C. Bannwarth and S. Grimme, J. Chem. Phys., 2017,
     147, 034112. DOI: 10.1063/1.4993215
   * E. Caldeweyher, S. Ehlert, A. Hansen, H. Neugebauer, S. Spicher,
     C. Bannwarth and S. Grimme, J. Chem. Phys., 2019, 150, 154122.
     DOI: 10.1063/1.5090222
   * E. Caldeweyher, J.-M. Mewes, S. Ehlert and S. Grimme, Phys. Chem. Chem. Phys.
     2020, 22, 8499-8512. DOI: 10.1039/D0CP00502A
   
   for sTDA-xTB:
   * S. Grimme and C. Bannwarth, J. Chem. Phys., 2016, 145, 054103.
     DOI: 10.1063/1.4959605
   
   in the mass-spec context:
   * V. Asgeirsson, C. Bauer and S. Grimme, Chem. Sci., 2017, 8, 4879.
     DOI: 10.1039/c7sc00601b
   * J. Koopman and S. Grimme, ACS Omega 2019, 4, 12, 15120-15133.
     DOI: 10.1021/acsomega.9b02011
   
   for metadynamics refer to:
   * S. Grimme, J. Chem. Theory Comput., 2019, 155, 2847-2862
     DOI: 10.1021/acs.jctc.9b00143
   
   for SPH calculations refer to:
   * S. Spicher and S. Grimme, J. Chem. Theory Comput., 2021, 17, 1701-1714
     DOI: 10.1021/acs.jctc.0c01306
   
   for ONIOM refer to:
   * C. Plett, A. Katbashev, S. Ehlert, S. Grimme, M. Bursch,
     Phys. Chem. Chem. Phys., 2023, 25, 17860-17868. DOI: 10.1039/D3CP02178E
   
   for DIPRO refer to:
   * J. Kohn, N. Gildemeister, S. Grimme, D. Fazzi, A. Hansen,
     J. Chem. Phys., 2023, just accepted.
   
   for PTB refer to:
   * S. Grimme, M. Mueller, A. Hansen, J. Chem. Phys., 2023, 158, 124111.
     DOI: 10.1063/5.0137838
   
   with help from (in alphabetical order)
   P. Atkinson, C. Bannwarth, F. Bohle, G. Brandenburg, E. Caldeweyher
   M. Checinski, S. Dohm, S. Ehlert, S. Ehrlich, I. Gerasimov, C. Hölzer
   A. Katbashev, J. Kohn, J. Koopman, C. Lavigne, S. Lehtola, F. März, M. Müller,
   F. Musil, H. Neugebauer, J. Pisarek, C. Plett, P. Pracht, F. Pultar,
   J. Seibert, P. Shushkov, S. Spicher, M. Stahn, M. Steiner, T. Strunk,
   J. Stückrath, T. Rose, and J. Unsleber
   
 * started run on 2026/05/26 at 02:23:21.376     
   ID    Z sym.   atoms
    1    6 C      1-6, 11, 14, 15, 21
    2    1 H      7-10, 16-20, 24, 27, 28, 30, 31, 33, 34, 36, 37, 39, 40,
                  42, 43
    3    8 O      12, 13, 22, 23, 26, 29, 32, 35, 38, 41
    4   48 Cd     25

           -------------------------------------------------
          |                Calculation Setup                |
           -------------------------------------------------

          program call               : /content/xtb_env/bin/xtb input.xyz --gfn 2 --opt tight --alpb water --chrg 2 --uhf 0
          hostname                   : 01035569fb61
          coordinate file            : input.xyz
          omp threads                :                     2


molecular fragmentation (1/2 indicates fragments):
1111111111111111111111111111111111111222222
# atoms in fragment 1/2:    37     6
 fragment masses (1/2) :      378.66       36.03
CMA distance (Bohr)    :   6.159
constraining FC (au)   :  0.0500

           -------------------------------------------------
          |                 G F N 2 - x T B                 |
           -------------------------------------------------

        Reference                      10.1021/acs.jctc.8b01176
      * Hamiltonian:
        H0-scaling (s, p, d)           1.850000    2.230000    2.230000
        zeta-weighting                 0.500000
      * Dispersion:
        s8                             2.700000
        a1                             0.520000
        a2                             5.000000
        s9                             5.000000
      * Repulsion:
        kExp                           1.500000    1.000000
        rExp                           1.000000
      * Coulomb:
        alpha                          2.000000
        third order                    shell-resolved
        anisotropic                    true
        a3                             3.000000
        a5                             4.000000
        cn-shift                       1.200000
        cn-exp                         4.000000
        max-rad                        5.000000

      * Solvation model:               ALPB
        Solvent                        water
        Parameter file                 internal GFN2-xTB/ALPB
        Dielectric constant                8.0200E+01
        Reference state                gsolv [1 M gas/solution]
        Free energy shift                  1.0808E-03 Eh       6.7819E-01 kcal/mol
        Temperature                        2.9815E+02 K
        Density                            1.0000E+00 kg/L
        Solvent mass                       1.8000E+01 g/mol
        Interaction kernel             P16
        Born radius scaling (c1)           1.4744E+00
        Born radii integrator          GBOBC
        Born offset                        0.0000E+00 a0       0.0000E+00 AA
        H-bond correction              true
        Ion screening                  false
        Surface tension                    1.0000E-05 Eh       1.5569E+01 dyn/cm
        Grid points                               230 per atom

          ...................................................
          :                      SETUP                      :
          :.................................................:
          :  # basis functions                 106          :
          :  # atomic orbitals                 106          :
          :  # shells                           64          :
          :  # electrons                       122          :
          :  max. iterations                   250          :
          :  Hamiltonian                  GFN2-xTB          :
          :  restarted?                      false          :
          :  GBSA solvation                   true          :
          :  PC potential                    false          :
          :  electronic temp.          300.0000000     K    :
          :  accuracy                    1.0000000          :
          :  -> integral cutoff          0.2500000E+02      :
          :  -> integral neglect         0.1000000E-07      :
          :  -> SCF convergence          0.1000000E-05 Eh   :
          :  -> wf. convergence          0.1000000E-03 e    :
          :  Broyden damping             0.4000000          :
          :  net charge                          2          :
          :  unpaired electrons                  0          :
          ...................................................

 iter      E             dE          RMSdq      gap      omega  full diag
   1    -68.9415257 -0.689415E+02  0.911E+00    0.43       0.0  T
   2    -70.9008709 -0.195935E+01  0.709E+00    1.71       1.0  T
   3    -71.7318726 -0.831002E+00  0.445E+00    1.16       1.0  T
   4    -71.5704829  0.161390E+00  0.347E+00    0.80       1.0  T
   5    -71.8535465 -0.283064E+00  0.219E+00    0.59       1.0  T
   6    -71.7242146  0.129332E+00  0.196E+00    0.48       1.0  T
   7    -71.8612736 -0.137059E+00  0.140E+00    0.53       1.0  T
   8    -71.7783452  0.829284E-01  0.159E+00    0.19       1.0  T
   9    -71.8739643 -0.956191E-01  0.129E+00    0.29       1.0  T
  10    -71.9299558 -0.559915E-01  0.786E-01    0.05       1.0  T
  11    -71.9379616 -0.800585E-02  0.810E-01    0.09       1.0  T
  12    -71.9691523 -0.311907E-01  0.389E-01    0.01       1.0  T
  13    -71.9777474 -0.859515E-02  0.214E-01    0.00       1.0  T
  14    -71.9808842 -0.313680E-02  0.330E-02    0.01       1.0  T
  15    -71.9805353  0.348974E-03  0.753E-02    0.02       1.0  T
  16    -71.9809370 -0.401729E-03  0.102E-02    0.01       1.5  T
  17    -71.9809318  0.515997E-05  0.135E-02    0.02       1.1  T
  18    -71.9809387 -0.685766E-05  0.920E-03    0.01       1.7  T
  19    -71.9809442 -0.556379E-05  0.276E-03    0.02       5.5  T
  20    -71.9809448 -0.559512E-06  0.715E-05    0.01     213.2  T
  21    -71.9809448  0.931161E-08  0.358E-04    0.01      42.6  T

   *** convergence criteria satisfied after 21 iterations ***

         #    Occupation            Energy/Eh            Energy/eV
      -------------------------------------------------------------
         1        2.0000           -1.1147479             -30.3338
       ...           ...                  ...                  ...
        55        2.0000           -0.3662977              -9.9675
        56        2.0000           -0.3648078              -9.9269
        57        2.0000           -0.3508912              -9.5482
        58        2.0000           -0.3006869              -8.1821
        59        2.0000           -0.2907071              -7.9105
        60        2.0000           -0.2860294              -7.7833
        61        1.1434           -0.2154475              -5.8626 (HOMO)
        62        0.8566           -0.2148988              -5.8477 (LUMO)
        63                         -0.1918830              -5.2214
        64                         -0.1886841              -5.1344
        65                         -0.1358885              -3.6977
        66                         -0.1233634              -3.3569
       ...                                ...                  ...
       106                         21.7682240             592.3435
      -------------------------------------------------------------
                  HL-Gap            0.0005487 Eh            0.0149 eV
             Fermi-level           -0.2151731 Eh           -5.8552 eV

 SCC (total)                   0 d,  0 h,  0 min,  0.351 sec
 SCC setup                      ...        0 min,  0.009 sec (  2.706%)
 Dispersion                     ...        0 min,  0.008 sec (  2.281%)
 classical contributions        ...        0 min,  0.004 sec (  1.117%)
 integral evaluation            ...        0 min,  0.025 sec (  7.071%)
 iterations                     ...        0 min,  0.252 sec ( 71.818%)
 molecular gradient             ...        0 min,  0.044 sec ( 12.669%)
 printout                       ...        0 min,  0.008 sec (  2.325%)

         :::::::::::::::::::::::::::::::::::::::::::::::::::::
         ::                     SUMMARY                     ::
         :::::::::::::::::::::::::::::::::::::::::::::::::::::
         :: total energy             -66.169905320838 Eh    ::
         :: total w/o Gsasa/hb       -66.109255394531 Eh    ::
         :: gradient norm             17.173571755939 Eh/a0 ::
         :: HOMO-LUMO gap              0.014931000262 eV    ::
         ::.................................................::
         :: SCC energy               -71.980903151546 Eh    ::
         :: -> isotropic ES            1.136593239147 Eh    ::
         :: -> anisotropic ES          0.006365484743 Eh    ::
         :: -> anisotropic XC         -0.050386294738 Eh    ::
         :: -> dispersion             -0.037342122405 Eh    ::
         :: -> Gsolv                  -0.689619615598 Eh    ::
         ::    -> Gelec               -0.628969689291 Eh    ::
         ::    -> Gsasa                0.001540757611 Eh    ::
         ::    -> Ghb                 -0.063271443616 Eh    ::
         ::    -> Gshift               0.001080759698 Eh    ::
         :: repulsion energy           5.810997830708 Eh    ::
         :: add. restraining           0.000000000000 Eh    ::
         :: total charge               1.999999999953 e     ::
         :::::::::::::::::::::::::::::::::::::::::::::::::::::

      ----------------------------------------------------------- 
     |                   =====================                   |
     |                        A N C O P T                        |
     |                   =====================                   |
     |               Approximate Normal Coordinate               |
     |                Rational Function Optimizer                |
      ----------------------------------------------------------- 
      ----------------------------------------------------------- 
     |                   =====================                   |
     |                        A N C O P T                        |
     |                   =====================                   |
     |               Approximate Normal Coordinate               |
     |                Rational Function Optimizer                |
      ----------------------------------------------------------- 

          ...................................................
          :                      SETUP                      :
          :.................................................:
          :   optimization level             tight          :
          :   max. optcycles                   215          :
          :   ANC micro-cycles                  20          :
          :   degrees of freedom               123          :
          :.................................................:
          :   RF solver                   davidson          :
          :   write xtbopt.log                true          :
          :   linear?                        false          :
          :   energy convergence         0.1000000E-05 Eh   :
          :   grad. convergence          0.8000000E-03 Eh/α :
          :   maxmium RF displ.          1.0000000          :
          :   Hlow (freq-cutoff)         0.1000000E-01      :
          :   Hmax (freq-cutoff)         5.0000000          :
          :   S6 in model hess.         20.0000000          :
          ...................................................

generating ANC from exact Hessian ...
Using Lindh-Hessian (1995)
 Shifting diagonal of input Hessian by    1.0150772841219046E-002
 Lowest  eigenvalues of input Hessian
    0.010000    0.010052    0.010076    0.010101    0.000000    0.000000
    0.000000    0.000000    0.000000    0.000000    0.010229    0.010280
    0.010295    0.010330    0.010465    0.010612    0.010621    0.010632
 Highest eigenvalues
    3.284945    3.398971    4.225782    7.508229    8.794093   62.204951


........................................................................
.............................. CYCLE    1 ..............................
........................................................................

 iter      E             dE          RMSdq      gap      omega  full diag
   1    -71.9809448 -0.719809E+02  0.126E-04    0.01       0.0  T
   2    -71.9809439  0.942757E-06  0.359E-03    0.02       4.3  T
   3    -71.9809448 -0.943903E-06  0.175E-05    0.01     872.4  T
   4    -71.9809448 -0.206910E-10  0.399E-06    0.01    3822.4  T
     SCC iter.                  ...        0 min,  0.056 sec
     gradient                   ...        0 min,  0.048 sec
 * total energy  :   -66.1699053 Eh     change       -0.9414691E-08 Eh
   gradient norm :    17.1735641 Eh/α   predicted     0.0000000E+00 (-100.00%)
   displ. norm   :     0.8863681 α      lambda       -0.1520195E+02
   maximum displ.:     0.8394647 α      in ANC's #120, #123, #117, ...

........................................................................
.............................. CYCLE    2 ..............................
........................................................................

 iter      E             dE          RMSdq      gap      omega  full diag
   1    -72.0355256 -0.720355E+02  0.249E+00    0.67       0.0  T
   2    -71.9987252  0.368004E-01  0.219E+00    2.00       1.0  T
   3    -72.0922244 -0.934992E-01  0.149E+00    0.47       1.0  T
   4    -72.0673397  0.248847E-01  0.168E+00    0.56       1.0  T
   5    -72.0808560 -0.135163E-01  0.142E+00    0.70       1.0  T
   6    -72.1171469 -0.362909E-01  0.123E+00    0.22       1.0  T
   7    -72.1507349 -0.335879E-01  0.114E+00    0.10       1.0  T
   8    -72.2354636 -0.847287E-01  0.362E-01    0.04       1.0  T
   9    -72.2187272  0.167364E-01  0.595E-01    0.04       1.0  T
  10    -72.2206732 -0.194598E-02  0.554E-01    0.06       1.0  T
  11    -72.2372276 -0.165544E-01  0.330E-01    0.04       1.0  T
  12    -72.2461316 -0.890404E-02  0.366E-02    0.01       1.0  T
  13    -72.2457400  0.391597E-03  0.789E-02    0.00       1.0  T
  14    -72.2462209 -0.480870E-03  0.152E-02    0.01       1.0  T
  15    -72.2462360 -0.151626E-04  0.654E-03    0.01       2.3  T
  16    -72.2462393 -0.326692E-05  0.147E-03    0.01      10.4  T
  17    -72.2462390  0.321727E-06  0.246E-03    0.01       6.2  T
  18    -72.2462395 -0.485252E-06  0.174E-04    0.01      87.7  T
  19    -72.2462395  0.165500E-08  0.224E-04    0.01      68.0  T
     SCC iter.                  ...        0 min,  0.375 sec
     gradient                   ...        0 min,  0.088 sec
 * total energy  :   -70.5718491 Eh     change       -0.4401944E+01 Eh
   gradient norm :     6.2425915 Eh/α   predicted    -0.1358488E+02 ( 208.61%)
   displ. norm   :     0.7179467 α      lambda       -0.4384524E+01
   maximum displ.:     0.4810769 α      in ANC's #123, #120, #122, ...

........................................................................
.............................. CYCLE    3 ..............................
........................................................................

 iter      E             dE          RMSdq      gap      omega  full diag
   1    -72.7651305 -0.727651E+02  0.239E+00    1.54       0.0  T
   2    -72.6470233  0.118107E+00  0.240E+00    0.04       1.0  T
   3    -72.8665702 -0.219547E+00  0.121E+00    1.78       1.0  T
   4    -72.9019252 -0.353550E-01  0.645E-01    1.04       1.0  T
   5    -72.9063985 -0.447333E-02  0.404E-01    0.34       1.0  T
   6    -72.9087587 -0.236022E-02  0.234E-01    0.28       1.0  T
   7    -72.9069650  0.179370E-02  0.208E-01    0.11       1.0  T
   8    -72.9092400 -0.227503E-02  0.132E-01    0.28       1.0  T
   9    -72.9100153 -0.775249E-03  0.630E-02    0.21       1.0  T
  10    -72.9101874 -0.172099E-03  0.287E-02    0.19       1.0  T
  11    -72.9102328 -0.454354E-04  0.571E-03    0.18       2.7  T
  12    -72.9102252  0.758666E-05  0.113E-02    0.17       1.3  T
  13    -72.9102333 -0.802484E-05  0.122E-03    0.18      12.5  T
  14    -72.9102327  0.527387E-06  0.286E-03    0.18       5.3  T
  15    -72.9102333 -0.552213E-06  0.301E-04    0.18      50.6  T
  16    -72.9102333  0.367648E-08  0.313E-04    0.18      48.7  T
     SCC iter.                  ...        0 min,  0.241 sec
     gradient                   ...        0 min,  0.048 sec
 * total energy  :   -71.8298841 Eh     change       -0.1258035E+01 Eh
   gradient norm :     1.3434018 Eh/α   predicted    -0.3322388E+01 ( 164.09%)
   displ. norm   :     0.5844046 α      lambda       -0.3974945E+00
   maximum displ.:     0.2666982 α      in ANC's #72, #36, #62, ...

........................................................................
.............................. CYCLE    4 ..............................
........................................................................

 iter      E             dE          RMSdq      gap      omega  full diag
   1    -73.0670457 -0.730670E+02  0.724E-01    0.94       0.0  T
   2    -73.0698611 -0.281540E-02  0.508E-01    0.65       1.0  T
   3    -73.0734005 -0.353940E-02  0.304E-01    0.72       1.0  T
   4    -73.0741254 -0.724882E-03  0.120E-01    0.65       1.0  T
   5    -73.0744604 -0.334950E-03  0.463E-02    0.65       1.0  T
   6    -73.0744873 -0.269433E-04  0.179E-02    0.64       1.0  T
   7    -73.0744903 -0.298762E-05  0.930E-03    0.65       1.6  T
   8    -73.0744908 -0.483743E-06  0.350E-03    0.65       4.4  T
   9    -73.0744908 -0.526080E-07  0.161E-03    0.65       9.4  T
  10    -73.0744908 -0.205277E-07  0.668E-04    0.65      22.8  T
  11    -73.0744908 -0.286867E-08  0.334E-04    0.65      45.7  T
     SCC iter.                  ...        0 min,  0.177 sec
     gradient                   ...        0 min,  0.055 sec
 * total energy  :   -72.1386078 Eh     change       -0.3087237E+00 Eh
   gradient norm :     0.8610448 Eh/α   predicted    -0.2666253E+00 ( -13.64%)
   displ. norm   :     0.6528943 α      lambda       -0.2737320E+00
   maximum displ.:     0.2412314 α      in ANC's #72, #69, #36, ...

........................................................................
.............................. CYCLE    5 ..............................
........................................................................

 iter      E             dE          RMSdq      gap      omega  full diag
   1    -73.2080387 -0.732080E+02  0.734E-01    1.19       0.0  T
   2    -73.2112515 -0.321287E-02  0.362E-01    1.18       1.0  T
   3    -73.2112416  0.999651E-05  0.177E-01    1.20       1.0  T
   4    -73.2114328 -0.191284E-03  0.777E-02    1.17       1.0  T
   5    -73.2115144 -0.815954E-04  0.270E-02    1.18       1.0  T
   6    -73.2115309 -0.164871E-04  0.134E-02    1.18       1.1  T
   7    -73.2115322 -0.126453E-05  0.656E-03    1.18       2.3  T
   8    -73.2115326 -0.462224E-06  0.280E-03    1.18       5.4  T
   9    -73.2115327 -0.633685E-07  0.128E-03    1.18      12.0  T
  10    -73.2115327 -0.790745E-08  0.656E-04    1.18      23.2  T
  11    -73.2115327 -0.115452E-08  0.211E-04    1.18      72.4  T
     SCC iter.                  ...        0 min,  0.180 sec
     gradient                   ...        0 min,  0.088 sec
 * total energy  :   -72.3660577 Eh     change       -0.2274499E+00 Eh
   gradient norm :     0.5466195 Eh/α   predicted    -0.1952083E+00 ( -14.18%)
   displ. norm   :     0.7485777 α      lambda       -0.2249454E+00
   maximum displ.:     0.3360713 α      in ANC's #69, #72, #62, ...

........................................................................
.............................. CYCLE    6 ..............................
........................................................................

 iter      E             dE          RMSdq      gap      omega  full diag
   1    -73.3252459 -0.733252E+02  0.777E-01    1.50       0.0  T
   2    -73.3298889 -0.464304E-02  0.349E-01    1.54       1.0  T
   3    -73.3299186 -0.296802E-04  0.186E-01    1.55       1.0  T
   4    -73.3299123  0.627395E-05  0.753E-02    1.56       1.0  T
   5    -73.3300833 -0.170934E-03  0.231E-02    1.56       1.0  T
   6    -73.3300908 -0.748435E-05  0.127E-02    1.56       1.2  T
   7    -73.3300917 -0.941162E-06  0.539E-03    1.56       2.8  T
   8    -73.3300919 -0.167585E-06  0.269E-03    1.56       5.7  T
   9    -73.3300920 -0.923971E-07  0.114E-03    1.56      13.4  T
  10    -73.3300920 -0.470531E-08  0.591E-04    1.56      25.8  T
  11    -73.3300920 -0.186000E-08  0.191E-04    1.56      79.7  T
     SCC iter.                  ...        0 min,  0.110 sec
     gradient                   ...        0 min,  0.053 sec
 * total energy  :   -72.5542461 Eh     change       -0.1881884E+00 Eh
   gradient norm :     0.3715132 Eh/α   predicted    -0.1754989E+00 (  -6.74%)
   displ. norm   :     0.7509139 α      lambda       -0.1697622E+00
   maximum displ.:     0.3476973 α      in ANC's #69, #62, #36, ...

........................................................................
.............................. CYCLE    7 ..............................
........................................................................

 iter      E             dE          RMSdq      gap      omega  full diag
   1    -73.4177611 -0.734178E+02  0.580E-01    1.52       0.0  T
   2    -73.4205119 -0.275085E-02  0.280E-01    1.58       1.0  T
   3    -73.4205686 -0.566475E-04  0.144E-01    1.61       1.0  T
   4    -73.4205809 -0.122938E-04  0.468E-02    1.62       1.0  T
   5    -73.4206366 -0.556924E-04  0.155E-02    1.62       1.0  T
   6    -73.4206388 -0.224440E-05  0.767E-03    1.61       2.0  T
   7    -73.4206391 -0.307329E-06  0.402E-03    1.61       3.8  T
   8    -73.4206392 -0.117481E-06  0.205E-03    1.61       7.4  T
   9    -73.4206393 -0.811916E-07  0.786E-04    1.61      19.4  T
  10    -73.4206393 -0.237519E-08  0.364E-04    1.61      41.8  T
     SCC iter.                  ...        0 min,  0.099 sec
     gradient                   ...        0 min,  0.101 sec
 * total energy  :   -72.6961127 Eh     change       -0.1418666E+00 Eh
   gradient norm :     0.2913041 Eh/α   predicted    -0.1327431E+00 (  -6.43%)
   displ. norm   :     0.7227006 α      lambda       -0.1322198E+00
   maximum displ.:     0.2881505 α      in ANC's #69, #36, #62, ...

........................................................................
.............................. CYCLE    8 ..............................
........................................................................

 iter      E             dE          RMSdq      gap      omega  full diag
   1    -73.4971556 -0.734972E+02  0.456E-01    1.24       0.0  T
   2    -73.4986543 -0.149866E-02  0.241E-01    1.33       1.0  T
   3    -73.4986843 -0.300650E-04  0.112E-01    1.38       1.0  T
   4    -73.4986910 -0.670197E-05  0.470E-02    1.37       1.0  T
   5    -73.4987511 -0.600768E-04  0.155E-02    1.38       1.0  T
   6    -73.4987558 -0.469529E-05  0.671E-03    1.37       2.3  T
   7    -73.4987564 -0.571455E-06  0.365E-03    1.37       4.2  T
   8    -73.4987565 -0.115776E-06  0.139E-03    1.37      10.9  T
   9    -73.4987565 -0.241003E-07  0.574E-04    1.37      26.6  T
  10    -73.4987565 -0.222840E-08  0.233E-04    1.37      65.4  T
     SCC iter.                  ...        0 min,  0.196 sec
     gradient                   ...        0 min,  0.048 sec
 * total energy  :   -72.8072110 Eh     change       -0.1110983E+00 Eh
   gradient norm :     0.2342324 Eh/α   predicted    -0.1006390E+00 (  -9.41%)
   displ. norm   :     0.7100466 α      lambda       -0.1083252E+00
   maximum displ.:     0.2845418 α      in ANC's #36, #69, #88, ...

........................................................................
.............................. CYCLE    9 ..............................
........................................................................

 iter      E             dE          RMSdq      gap      omega  full diag
   1    -73.5741167 -0.735741E+02  0.442E-01    1.06       0.0  T
   2    -73.5755390 -0.142236E-02  0.239E-01    1.14       1.0  T
   3    -73.5754083  0.130741E-03  0.136E-01    1.22       1.0  T
   4    -73.5756603 -0.252012E-03  0.604E-02    1.19       1.0  T
   5    -73.5757305 -0.701681E-04  0.154E-02    1.20       1.0  T
   6    -73.5757350 -0.456020E-05  0.698E-03    1.20       2.2  T
   7    -73.5757353 -0.273229E-06  0.381E-03    1.20       4.0  T
   8    -73.5757354 -0.123890E-06  0.169E-03    1.20       9.0  T
   9    -73.5757355 -0.300885E-07  0.637E-04    1.20      23.9  T
  10    -73.5757355 -0.414479E-08  0.351E-04    1.20      43.5  T
     SCC iter.                  ...        0 min,  0.218 sec
     gradient                   ...        0 min,  0.074 sec
 * total energy  :   -72.8962761 Eh     change       -0.8906511E-01 Eh
   gradient norm :     0.1738288 Eh/α   predicted    -0.8146959E-01 (  -8.53%)
   displ. norm   :     0.6893657 α      lambda       -0.7875257E-01
   maximum displ.:     0.3347830 α      in ANC's #36, #88, #74, ...

........................................................................
.............................. CYCLE   10 ..............................
........................................................................

 iter      E             dE          RMSdq      gap      omega  full diag
   1    -73.6414393 -0.736414E+02  0.427E-01    1.04       0.0  T
   2    -73.6426053 -0.116598E-02  0.245E-01    1.09       1.0  T
   3    -73.6424394  0.165873E-03  0.168E-01    1.17       1.0  T
   4    -73.6430222 -0.582808E-03  0.533E-02    1.15       1.0  T
   5    -73.6430466 -0.243694E-04  0.169E-02    1.15       1.0  T
   6    -73.6430520 -0.543378E-05  0.813E-03    1.15       1.9  T
   7    -73.6430524 -0.317891E-06  0.424E-03    1.15       3.6  T
   8    -73.6430525 -0.173218E-06  0.191E-03    1.15       8.0  T
   9    -73.6430526 -0.411827E-07  0.669E-04    1.15      22.8  T
  10    -73.6430526 -0.349912E-08  0.393E-04    1.15      38.9  T
     SCC iter.                  ...        0 min,  0.090 sec
     gradient                   ...        0 min,  0.089 sec
 * total energy  :   -72.9588575 Eh     change       -0.6258148E-01 Eh
   gradient norm :     0.1269791 Eh/α   predicted    -0.5808899E-01 (  -7.18%)
   displ. norm   :     0.6664920 α      lambda       -0.5156256E-01
   maximum displ.:     0.3648757 α      in ANC's #36, #74, #88, ...

........................................................................
.............................. CYCLE   11 ..............................
........................................................................

 iter      E             dE          RMSdq      gap      omega  full diag
   1    -73.6897376 -0.736897E+02  0.365E-01    1.12       0.0  T
   2    -73.6903573 -0.619745E-03  0.219E-01    1.14       1.0  T
   3    -73.6903617 -0.437276E-05  0.154E-01    1.20       1.0  T
   4    -73.6908226 -0.460964E-03  0.383E-02    1.19       1.0  T
   5    -73.6908306 -0.796268E-05  0.143E-02    1.19       1.1  T
   6    -73.6908340 -0.340408E-05  0.788E-03    1.19       1.9  T
   7    -73.6908343 -0.341717E-06  0.399E-03    1.19       3.8  T
   8    -73.6908345 -0.164413E-06  0.171E-03    1.19       8.9  T
   9    -73.6908345 -0.298970E-07  0.745E-04    1.19      20.5  T
  10    -73.6908345 -0.583772E-08  0.428E-04    1.19      35.6  T
     SCC iter.                  ...        0 min,  0.171 sec
     gradient                   ...        0 min,  0.056 sec
 * total energy  :   -73.0003037 Eh     change       -0.4144618E-01 Eh
   gradient norm :     0.1082681 Eh/α   predicted    -0.3723361E-01 ( -10.16%)
   displ. norm   :     0.6611276 α      lambda       -0.3761402E-01
   maximum displ.:     0.3612784 α      in ANC's #36, #40, #74, ...

........................................................................
.............................. CYCLE   12 ..............................
........................................................................

 iter      E             dE          RMSdq      gap      omega  full diag
   1    -73.7236022 -0.737236E+02  0.303E-01    1.22       0.0  T
   2    -73.7238965 -0.294246E-03  0.185E-01    1.23       1.0  T
   3    -73.7238976 -0.113339E-05  0.130E-01    1.26       1.0  T
   4    -73.7242114 -0.313746E-03  0.258E-02    1.26       1.0  T
   5    -73.7242142 -0.287887E-05  0.122E-02    1.26       1.2  T
   6    -73.7242165 -0.228276E-05  0.681E-03    1.26       2.2  T
   7    -73.7242168 -0.276106E-06  0.281E-03    1.26       5.4  T
   8    -73.7242169 -0.725117E-07  0.121E-03    1.26      12.6  T
   9    -73.7242169 -0.127433E-07  0.609E-04    1.26      25.1  T
  10    -73.7242169 -0.335295E-08  0.319E-04    1.26      47.8  T
     SCC iter.                  ...        0 min,  0.136 sec
     gradient                   ...        0 min,  0.091 sec
 * total energy  :   -73.0308357 Eh     change       -0.3053201E-01 Eh
   gradient norm :     0.0998519 Eh/α   predicted    -0.2702736E-01 ( -11.48%)
   displ. norm   :     0.6571232 α      lambda       -0.2850423E-01
   maximum displ.:     0.3399385 α      in ANC's #36, #40, #81, ...

........................................................................
.............................. CYCLE   13 ..............................
........................................................................

 iter      E             dE          RMSdq      gap      omega  full diag
   1    -73.7471112 -0.737471E+02  0.261E-01    1.31       0.0  T
   2    -73.7473035 -0.192316E-03  0.161E-01    1.30       1.0  T
   3    -73.7473386 -0.350307E-04  0.112E-01    1.32       1.0  T
   4    -73.7475462 -0.207589E-03  0.200E-02    1.32       1.0  T
   5    -73.7475481 -0.197302E-05  0.112E-02    1.32       1.4  T
   6    -73.7475496 -0.148937E-05  0.622E-03    1.32       2.5  T
   7    -73.7475498 -0.171024E-06  0.158E-03    1.32       9.7  T
   8    -73.7475498 -0.318646E-07  0.740E-04    1.32      20.6  T
   9    -73.7475498 -0.325295E-08  0.421E-04    1.32      36.2  T
     SCC iter.                  ...        0 min,  0.182 sec
     gradient                   ...        0 min,  0.075 sec
 * total energy  :   -73.0541433 Eh     change       -0.2330759E-01 Eh
   gradient norm :     0.0961781 Eh/α   predicted    -0.2040635E-01 ( -12.45%)
   displ. norm   :     0.6447225 α      lambda       -0.2312251E-01
   maximum displ.:     0.2758025 α      in ANC's #36, #40, #81, ...

........................................................................
.............................. CYCLE   14 ..............................
........................................................................

 iter      E             dE          RMSdq      gap      omega  full diag
   1    -73.7667899 -0.737668E+02  0.225E-01    1.35       0.0  T
   2    -73.7669940 -0.204080E-03  0.142E-01    1.32       1.0  T
   3    -73.7669653  0.286737E-04  0.874E-02    1.33       1.0  T
   4    -73.7670817 -0.116347E-03  0.214E-02    1.33       1.0  T
   5    -73.7670893 -0.761707E-05  0.123E-02    1.33       1.2  T
   6    -73.7670903 -0.105014E-05  0.621E-03    1.33       2.5  T
   7    -73.7670904 -0.860280E-07  0.255E-03    1.33       6.0  T
   8    -73.7670905 -0.121625E-06  0.818E-04    1.33      18.6  T
   9    -73.7670905 -0.547125E-08  0.478E-04    1.33      31.9  T
     SCC iter.                  ...        0 min,  0.095 sec
     gradient                   ...        0 min,  0.087 sec
 * total energy  :   -73.0726834 Eh     change       -0.1854011E-01 Eh
   gradient norm :     0.0914882 Eh/α   predicted    -0.1636689E-01 ( -11.72%)
   displ. norm   :     0.6419855 α      lambda       -0.2025270E-01
   maximum displ.:     0.3342756 α      in ANC's #36, #40, #81, ...

........................................................................
.............................. CYCLE   15 ..............................
........................................................................

 iter      E             dE          RMSdq      gap      omega  full diag
   1    -73.7738490 -0.737738E+02  0.291E-01    1.49       0.0  T
   2    -73.7746661 -0.817177E-03  0.191E-01    1.46       1.0  T
   3    -73.7751652 -0.499076E-03  0.108E-01    1.44       1.0  T
   4    -73.7752327 -0.675156E-04  0.410E-02    1.42       1.0  T
   5    -73.7752562 -0.234768E-04  0.143E-02    1.43       1.1  T
   6    -73.7752592 -0.298614E-05  0.755E-03    1.43       2.0  T
   7    -73.7752594 -0.224945E-06  0.375E-03    1.43       4.1  T
   8    -73.7752596 -0.156715E-06  0.192E-03    1.43       7.9  T
   9    -73.7752596 -0.477808E-07  0.109E-03    1.43      14.0  T
  10    -73.7752596 -0.119216E-07  0.503E-04    1.43      30.3  T
  11    -73.7752596 -0.394732E-08  0.192E-04    1.43      79.5  T
     SCC iter.                  ...        0 min,  0.238 sec
     gradient                   ...        0 min,  0.048 sec
 * total energy  :   -73.0857394 Eh     change       -0.1305600E-01 Eh
   gradient norm :     0.0960694 Eh/α   predicted    -0.1429988E-01 (   9.53%)
   displ. norm   :     0.6011105 α      lambda       -0.1788272E-01
   maximum displ.:     0.2328557 α      in ANC's #38, #23, #81, ...

........................................................................
.............................. CYCLE   16 ..............................
........................................................................

 iter      E             dE          RMSdq      gap      omega  full diag
   1    -73.7873351 -0.737873E+02  0.243E-01    1.47       0.0  T
   2    -73.7882303 -0.895214E-03  0.152E-01    1.41       1.0  T
   3    -73.7883173 -0.870632E-04  0.849E-02    1.41       1.0  T
   4    -73.7883381 -0.207708E-04  0.276E-02    1.41       1.0  T
   5    -73.7883434 -0.529147E-05  0.138E-02    1.41       1.1  T
   6    -73.7883464 -0.296659E-05  0.779E-03    1.41       2.0  T
   7    -73.7883468 -0.410967E-06  0.325E-03    1.41       4.7  T
   8    -73.7883469 -0.156712E-06  0.195E-03    1.41       7.8  T
   9    -73.7883470 -0.562985E-07  0.119E-03    1.41      12.8  T
  10    -73.7883470 -0.200254E-07  0.411E-04    1.41      37.1  T
  11    -73.7883470 -0.246230E-08  0.197E-04    1.41      77.5  T
     SCC iter.                  ...        0 min,  0.140 sec
     gradient                   ...        0 min,  0.088 sec
 * total energy  :   -73.0958294 Eh     change       -0.1008992E-01 Eh
   gradient norm :     0.0771956 Eh/α   predicted    -0.1217219E-01 (  20.64%)
   displ. norm   :     0.3461409 α      lambda       -0.6542285E-02
   maximum displ.:     0.1241598 α      in ANC's #38, #36, #40, ...

........................................................................
.............................. CYCLE   17 ..............................
........................................................................

 iter      E             dE          RMSdq      gap      omega  full diag
   1    -73.7939870 -0.737940E+02  0.110E-01    1.49       0.0  T
   2    -73.7941031 -0.116091E-03  0.771E-02    1.48       1.0  T
   3    -73.7941668 -0.636395E-04  0.429E-02    1.47       1.0  T
   4    -73.7941756 -0.884592E-05  0.163E-02    1.46       1.0  T
   5    -73.7941795 -0.391892E-05  0.715E-03    1.47       2.1  T
   6    -73.7941800 -0.490498E-06  0.376E-03    1.47       4.1  T
   7    -73.7941801 -0.778760E-07  0.221E-03    1.47       6.9  T
   8    -73.7941802 -0.805646E-07  0.108E-03    1.47      14.1  T
   9    -73.7941802 -0.139662E-07  0.601E-04    1.47      25.4  T
  10    -73.7941802 -0.497609E-08  0.186E-04    1.47      81.9  T
     SCC iter.                  ...        0 min,  0.174 sec
     gradient                   ...        0 min,  0.054 sec
 * total energy  :   -73.1010680 Eh     change       -0.5238631E-02 Eh
   gradient norm :     0.0651402 Eh/α   predicted    -0.3663079E-02 ( -30.08%)
   displ. norm   :     0.4595109 α      lambda       -0.8331225E-02
   maximum displ.:     0.1531542 α      in ANC's #4, #38, #47, ...

........................................................................
.............................. CYCLE   18 ..............................
........................................................................

 iter      E             dE          RMSdq      gap      omega  full diag
   1    -73.8007885 -0.738008E+02  0.159E-01    1.58       0.0  T
   2    -73.8009439 -0.155462E-03  0.101E-01    1.57       1.0  T
   3    -73.8009612 -0.172489E-04  0.577E-02    1.56       1.0  T
   4    -73.8009989 -0.376851E-04  0.209E-02    1.55       1.0  T
   5    -73.8010060 -0.711165E-05  0.878E-03    1.56       1.7  T
   6    -73.8010070 -0.103851E-05  0.439E-03    1.56       3.5  T
   7    -73.8010071 -0.861862E-07  0.258E-03    1.56       5.9  T
   8    -73.8010072 -0.116872E-06  0.116E-03    1.56      13.1  T
   9    -73.8010072 -0.170953E-07  0.601E-04    1.56      25.4  T
  10    -73.8010072 -0.494332E-08  0.240E-04    1.56      63.5  T
     SCC iter.                  ...        0 min,  0.126 sec
     gradient                   ...        0 min,  0.049 sec
 * total energy  :   -73.1071838 Eh     change       -0.6115850E-02 Eh
   gradient norm :     0.0568037 Eh/α   predicted    -0.5045186E-02 ( -17.51%)
   displ. norm   :     0.5100703 α      lambda       -0.6892581E-02
   maximum displ.:     0.2318704 α      in ANC's #17, #38, #8, ...

........................................................................
.............................. CYCLE   19 ..............................
........................................................................

 iter      E             dE          RMSdq      gap      omega  full diag
   1    -73.8086136 -0.738086E+02  0.167E-01    1.62       0.0  T
   2    -73.8086888 -0.751597E-04  0.101E-01    1.62       1.0  T
   3    -73.8086558  0.330321E-04  0.541E-02    1.61       1.0  T
   4    -73.8087147 -0.588956E-04  0.147E-02    1.61       1.0  T
   5    -73.8087185 -0.379812E-05  0.618E-03    1.61       2.5  T
   6    -73.8087190 -0.593731E-06  0.319E-03    1.61       4.8  T
   7    -73.8087191 -0.608081E-07  0.208E-03    1.61       7.3  T
   8    -73.8087192 -0.495767E-07  0.899E-04    1.61      17.0  T
   9    -73.8087192 -0.101992E-07  0.424E-04    1.61      36.0  T
     SCC iter.                  ...        0 min,  0.161 sec
     gradient                   ...        0 min,  0.069 sec
 * total energy  :   -73.1114004 Eh     change       -0.4216505E-02 Eh
   gradient norm :     0.0655322 Eh/α   predicted    -0.4342935E-02 (   3.00%)
   displ. norm   :     0.5824423 α      lambda       -0.8688482E-02
   maximum displ.:     0.2389021 α      in ANC's #4, #8, #23, ...

........................................................................
.............................. CYCLE   20 ..............................
........................................................................

 iter      E             dE          RMSdq      gap      omega  full diag
   1    -73.7949670 -0.737950E+02  0.206E-01    1.67       0.0  T
   2    -73.7950368 -0.698496E-04  0.122E-01    1.67       1.0  T
   3    -73.7950332  0.361226E-05  0.331E-02    1.66       1.0  T
   4    -73.7950513 -0.181240E-04  0.136E-02    1.66       1.1  T
   5    -73.7950533 -0.194714E-05  0.799E-03    1.66       1.9  T
   6    -73.7950535 -0.268420E-06  0.490E-03    1.66       3.1  T
   7    -73.7950536 -0.929967E-07  0.155E-03    1.66       9.8  T
   8    -73.7950537 -0.459763E-07  0.859E-04    1.66      17.7  T
   9    -73.7950537 -0.966016E-08  0.576E-04    1.66      26.5  T
     SCC iter.                  ...        0 min,  0.070 sec
     gradient                   ...        0 min,  0.047 sec
 * total energy  :   -73.1160968 Eh     change       -0.4696468E-02 Eh
   gradient norm :     0.0666774 Eh/α   predicted    -0.5817992E-02 (  23.88%)
   displ. norm   :     0.3896005 α      lambda       -0.8307494E-02
   maximum displ.:     0.1890428 α      in ANC's #17, #47, #23, ...
 * RMSD in coord.:     1.2038434 α      energy gain  -0.6946191E+01 Eh

generating ANC from exact Hessian ...
Using Lindh-Hessian (1995)
 Shifting diagonal of input Hessian by    1.0969517925106569E-002
 Lowest  eigenvalues of input Hessian
    0.010000    0.010319    0.010728    0.010741    0.000000    0.000000
    0.000000    0.000000    0.000000    0.000000    0.011186    0.011330
    0.011395    0.011552    0.011586    0.011623    0.011701    0.011909
 Highest eigenvalues
    1.736608    1.877858    1.900801    1.962881    2.157530    2.231407


........................................................................
.............................. CYCLE   21 ..............................
........................................................................

 iter      E             dE          RMSdq      gap      omega  full diag
   1    -73.8095481 -0.738095E+02  0.147E-01    1.73       0.0  T
   2    -73.8096213 -0.731846E-04  0.944E-02    1.73       1.0  T
   3    -73.8096188  0.247588E-05  0.584E-02    1.73       1.0  T
   4    -73.8096764 -0.575189E-04  0.117E-02    1.73       1.3  T
   5    -73.8096790 -0.262255E-05  0.513E-03    1.73       3.0  T
   6    -73.8096791 -0.133744E-06  0.346E-03    1.73       4.4  T
   7    -73.8096791 -0.349917E-08  0.119E-03    1.73      12.8  T
   8    -73.8096791 -0.439044E-08  0.484E-04    1.73      31.5  T
   9    -73.8096791 -0.613626E-08  0.121E-04    1.73     125.7  T
     SCC iter.                  ...        0 min,  0.134 sec
     gradient                   ...        0 min,  0.048 sec
 * total energy  :   -73.1214950 Eh     change       -0.5398148E-02 Eh
   gradient norm :     0.0514313 Eh/α   predicted     0.0000000E+00 (-100.00%)
   displ. norm   :     0.4622662 α      lambda       -0.1288698E-01
   maximum displ.:     0.2233195 α      in ANC's #33, #26, #54, ...

........................................................................
.............................. CYCLE   22 ..............................
........................................................................

 iter      E             dE          RMSdq      gap      omega  full diag
   1    -73.8195028 -0.738195E+02  0.197E-01    1.97       0.0  T
   2    -73.8196870 -0.184241E-03  0.110E-01    1.97       1.0  T
   3    -73.8196611  0.258756E-04  0.668E-02    1.97       1.0  T
   4    -73.8197274 -0.662621E-04  0.244E-02    1.98       1.0  T
   5    -73.8197358 -0.838707E-05  0.839E-03    1.97       1.8  T
   6    -73.8197368 -0.101877E-05  0.523E-03    1.97       2.9  T
   7    -73.8197371 -0.341312E-06  0.259E-03    1.97       5.9  T
   8    -73.8197373 -0.136458E-06  0.153E-03    1.97      10.0  T
   9    -73.8197373 -0.332123E-07  0.850E-04    1.97      17.9  T
  10    -73.8197373 -0.110136E-07  0.273E-04    1.97      55.8  T
     SCC iter.                  ...        0 min,  0.176 sec
     gradient                   ...        0 min,  0.056 sec
 * total energy  :   -73.1321793 Eh     change       -0.1068429E-01 Eh
   gradient norm :     0.0301023 Eh/α   predicted    -0.7820777E-02 ( -26.80%)
   displ. norm   :     0.6857135 α      lambda       -0.1249030E-01
   maximum displ.:     0.3587091 α      in ANC's #33, #26, #23, ...

........................................................................
.............................. CYCLE   23 ..............................
........................................................................

 iter      E             dE          RMSdq      gap      omega  full diag
   1    -73.8262384 -0.738262E+02  0.242E-01    2.15       0.0  T
   2    -73.8265608 -0.322397E-03  0.138E-01    2.17       1.0  T
   3    -73.8265525  0.821292E-05  0.910E-02    2.15       1.0  T
   4    -73.8266712 -0.118634E-03  0.305E-02    2.17       1.0  T
   5    -73.8266804 -0.925282E-05  0.107E-02    2.16       1.4  T
   6    -73.8266822 -0.179372E-05  0.658E-03    2.16       2.3  T
   7    -73.8266828 -0.544748E-06  0.315E-03    2.16       4.8  T
   8    -73.8266830 -0.194638E-06  0.185E-03    2.16       8.3  T
   9    -73.8266830 -0.528350E-07  0.101E-03    2.16      15.1  T
  10    -73.8266830 -0.154854E-07  0.353E-04    2.16      43.2  T
  11    -73.8266830 -0.157756E-08  0.914E-05    2.16     166.8  T
     SCC iter.                  ...        0 min,  0.150 sec
     gradient                   ...        0 min,  0.043 sec
 * total energy  :   -73.1417476 Eh     change       -0.9568318E-02 Eh
   gradient norm :     0.0301002 Eh/α   predicted    -0.9181638E-02 (  -4.04%)
   displ. norm   :     0.6584166 α      lambda       -0.7540435E-02
   maximum displ.:     0.3204561 α      in ANC's #26, #33, #23, ...

........................................................................
.............................. CYCLE   24 ..............................
........................................................................

 iter      E             dE          RMSdq      gap      omega  full diag
   1    -73.8300425 -0.738300E+02  0.179E-01    2.16       0.0  T
   2    -73.8302039 -0.161338E-03  0.108E-01    2.18       1.0  T
   3    -73.8302242 -0.203589E-04  0.704E-02    2.17       1.0  T
   4    -73.8302912 -0.669416E-04  0.204E-02    2.18       1.0  T
   5    -73.8302943 -0.312085E-05  0.788E-03    2.17       1.9  T
   6    -73.8302954 -0.107321E-05  0.455E-03    2.18       3.4  T
   7    -73.8302956 -0.226456E-06  0.182E-03    2.18       8.4  T
   8    -73.8302956 -0.564578E-07  0.110E-03    2.18      13.8  T
   9    -73.8302957 -0.177467E-07  0.638E-04    2.18      23.9  T
  10    -73.8302957 -0.694199E-08  0.258E-04    2.18      59.0  T
     SCC iter.                  ...        0 min,  0.236 sec
     gradient                   ...        0 min,  0.055 sec
 * total energy  :   -73.1479056 Eh     change       -0.6158031E-02 Eh
   gradient norm :     0.0364474 Eh/α   predicted    -0.5404675E-02 ( -12.23%)
   displ. norm   :     0.6579663 α      lambda       -0.6546148E-02
   maximum displ.:     0.3043182 α      in ANC's #23, #26, #33, ...

........................................................................
.............................. CYCLE   25 ..............................
........................................................................

 iter      E             dE          RMSdq      gap      omega  full diag
   1    -73.8354901 -0.738355E+02  0.155E-01    2.16       0.0  T
   2    -73.8355849 -0.947600E-04  0.959E-02    2.18       1.0  T
   3    -73.8355837  0.118109E-05  0.605E-02    2.17       1.0  T
   4    -73.8356382 -0.544976E-04  0.152E-02    2.18       1.0  T
   5    -73.8356401 -0.190271E-05  0.633E-03    2.17       2.4  T
   6    -73.8356408 -0.749184E-06  0.336E-03    2.17       4.5  T
   7    -73.8356409 -0.733454E-07  0.115E-03    2.17      13.3  T
   8    -73.8356409 -0.175555E-07  0.619E-04    2.17      24.6  T
   9    -73.8356409 -0.457463E-08  0.406E-04    2.17      37.6  T
     SCC iter.                  ...        0 min,  0.074 sec
     gradient                   ...        0 min,  0.049 sec
 * total energy  :   -73.1532369 Eh     change       -0.5331281E-02 Eh
   gradient norm :     0.0281061 Eh/α   predicted    -0.4690069E-02 ( -12.03%)
   displ. norm   :     0.6378538 α      lambda       -0.5022652E-02
   maximum displ.:     0.2953943 α      in ANC's #23, #11, #33, ...

........................................................................
.............................. CYCLE   26 ..............................
........................................................................

 iter      E             dE          RMSdq      gap      omega  full diag
   1    -73.8418022 -0.738418E+02  0.143E-01    2.16       0.0  T
   2    -73.8418647 -0.624686E-04  0.863E-02    2.17       1.0  T
   3    -73.8418409  0.237688E-04  0.457E-02    2.16       1.0  T
   4    -73.8418805 -0.395991E-04  0.136E-02    2.16       1.1  T
   5    -73.8418830 -0.247429E-05  0.505E-03    2.16       3.0  T
   6    -73.8418834 -0.389648E-06  0.287E-03    2.16       5.3  T
   7    -73.8418834 -0.620337E-07  0.124E-03    2.16      12.3  T
   8    -73.8418834 -0.182021E-07  0.500E-04    2.16      30.5  T
   9    -73.8418834 -0.327289E-08  0.317E-04    2.16      48.2  T
     SCC iter.                  ...        0 min,  0.072 sec
     gradient                   ...        0 min,  0.089 sec
 * total energy  :   -73.1571382 Eh     change       -0.3901329E-02 Eh
   gradient norm :     0.0163304 Eh/α   predicted    -0.3533081E-02 (  -9.44%)
   displ. norm   :     0.5944645 α      lambda       -0.3020189E-02
   maximum displ.:     0.2770454 α      in ANC's #23, #11, #22, ...

........................................................................
.............................. CYCLE   27 ..............................
........................................................................

 iter      E             dE          RMSdq      gap      omega  full diag
   1    -73.8455464 -0.738455E+02  0.126E-01    2.15       0.0  T
   2    -73.8455860 -0.395950E-04  0.747E-02    2.15       1.0  T
   3    -73.8455724  0.136335E-04  0.325E-02    2.15       1.0  T
   4    -73.8455928 -0.203791E-04  0.109E-02    2.15       1.4  T
   5    -73.8455947 -0.189553E-05  0.394E-03    2.15       3.9  T
   6    -73.8455949 -0.211470E-06  0.242E-03    2.15       6.3  T
   7    -73.8455949 -0.565666E-07  0.120E-03    2.15      12.7  T
   8    -73.8455949 -0.218943E-07  0.475E-04    2.15      32.1  T
   9    -73.8455949 -0.345872E-08  0.292E-04    2.15      52.3  T
     SCC iter.                  ...        0 min,  0.142 sec
     gradient                   ...        0 min,  0.076 sec
 * total energy  :   -73.1594675 Eh     change       -0.2329329E-02 Eh
   gradient norm :     0.0125495 Eh/α   predicted    -0.2043761E-02 ( -12.26%)
   displ. norm   :     0.5677824 α      lambda       -0.2091190E-02
   maximum displ.:     0.2976932 α      in ANC's #11, #22, #23, ...

........................................................................
.............................. CYCLE   28 ..............................
........................................................................

 iter      E             dE          RMSdq      gap      omega  full diag
   1    -73.8499888 -0.738500E+02  0.105E-01    2.14       0.0  T
   2    -73.8500123 -0.234579E-04  0.627E-02    2.14       1.0  T
   3    -73.8500045  0.780840E-05  0.239E-02    2.14       1.0  T
   4    -73.8500159 -0.114744E-04  0.848E-03    2.14       1.8  T
   5    -73.8500171 -0.120924E-05  0.295E-03    2.14       5.2  T
   6    -73.8500173 -0.110416E-06  0.188E-03    2.14       8.1  T
   7    -73.8500173 -0.335586E-07  0.995E-04    2.14      15.3  T
   8    -73.8500173 -0.144841E-07  0.408E-04    2.14      37.4  T
     SCC iter.                  ...        0 min,  0.071 sec
     gradient                   ...        0 min,  0.086 sec
 * total energy  :   -73.1610941 Eh     change       -0.1626539E-02 Eh
   gradient norm :     0.0150953 Eh/α   predicted    -0.1382671E-02 ( -14.99%)
   displ. norm   :     0.6265644 α      lambda       -0.1842978E-02
   maximum displ.:     0.3422514 α      in ANC's #11, #22, #23, ...

........................................................................
.............................. CYCLE   29 ..............................
........................................................................

 iter      E             dE          RMSdq      gap      omega  full diag
   1    -73.8501009 -0.738501E+02  0.105E-01    2.14       0.0  T
   2    -73.8501202 -0.193563E-04  0.636E-02    2.14       1.0  T
   3    -73.8501181  0.213811E-05  0.190E-02    2.15       1.0  T
   4    -73.8501234 -0.532762E-05  0.926E-03    2.14       1.6  T
   5    -73.8501252 -0.179106E-05  0.382E-03    2.14       4.0  T
   6    -73.8501253 -0.109245E-06  0.258E-03    2.14       5.9  T
   7    -73.8501254 -0.897477E-07  0.107E-03    2.14      14.2  T
   8    -73.8501254 -0.207781E-07  0.636E-04    2.14      24.0  T
   9    -73.8501254 -0.541894E-08  0.300E-04    2.14      50.9  T
     SCC iter.                  ...        0 min,  0.214 sec
     gradient                   ...        0 min,  0.083 sec
 * total energy  :   -73.1624555 Eh     change       -0.1361443E-02 Eh
   gradient norm :     0.0127141 Eh/α   predicted    -0.1283251E-02 (  -5.74%)
   displ. norm   :     0.6043859 α      lambda       -0.1800754E-02
   maximum displ.:     0.3302980 α      in ANC's #11, #22, #8, ...

........................................................................
.............................. CYCLE   30 ..............................
........................................................................

 iter      E             dE          RMSdq      gap      omega  full diag
   1    -73.8561385 -0.738561E+02  0.815E-02    2.15       0.0  T
   2    -73.8561614 -0.229460E-04  0.494E-02    2.15       1.0  T
   3    -73.8561624 -0.944226E-06  0.168E-02    2.15       1.0  T
   4    -73.8561640 -0.162221E-05  0.904E-03    2.15       1.7  T
   5    -73.8561655 -0.148953E-05  0.396E-03    2.15       3.9  T
   6    -73.8561656 -0.116213E-06  0.209E-03    2.15       7.3  T
   7    -73.8561656 -0.291502E-07  0.605E-04    2.15      25.2  T
   8    -73.8561656 -0.275608E-08  0.354E-04    2.15      43.1  T
     SCC iter.                  ...        0 min,  0.068 sec
     gradient                   ...        0 min,  0.042 sec
 * total energy  :   -73.1634955 Eh     change       -0.1039936E-02 Eh
   gradient norm :     0.0168122 Eh/α   predicted    -0.1229274E-02 (  18.21%)
   displ. norm   :     0.3852436 α      lambda       -0.8159249E-03
   maximum displ.:     0.2168137 α      in ANC's #11, #8, #23, ...

........................................................................
.............................. CYCLE   31 ..............................
........................................................................

 iter      E             dE          RMSdq      gap      omega  full diag
   1    -73.8546404 -0.738546E+02  0.640E-02    2.16       0.0  T
   2    -73.8546456 -0.518185E-05  0.390E-02    2.16       1.0  T
   3    -73.8546425  0.312971E-05  0.151E-02    2.16       1.0  T
   4    -73.8546474 -0.497407E-05  0.546E-03    2.16       2.8  T
   5    -73.8546478 -0.319920E-06  0.298E-03    2.16       5.1  T
   6    -73.8546478 -0.541599E-07  0.150E-03    2.16      10.2  T
   7    -73.8546478 -0.233819E-07  0.606E-04    2.16      25.1  T
   8    -73.8546478 -0.500079E-08  0.431E-04    2.16      35.4  T
     SCC iter.                  ...        0 min,  0.083 sec
     gradient                   ...        0 min,  0.045 sec
 * total energy  :   -73.1640542 Eh     change       -0.5587780E-03 Eh
   gradient norm :     0.0099274 Eh/α   predicted    -0.4685146E-03 ( -16.15%)
   displ. norm   :     0.3382918 α      lambda       -0.7876925E-03
   maximum displ.:     0.1819961 α      in ANC's #11, #8, #22, ...

........................................................................
.............................. CYCLE   32 ..............................
........................................................................

 iter      E             dE          RMSdq      gap      omega  full diag
   1    -73.8547086 -0.738547E+02  0.933E-02    2.17       0.0  T
   2    -73.8547174 -0.878301E-05  0.570E-02    2.16       1.0  T
   3    -73.8547001  0.173023E-04  0.311E-02    2.17       1.0  T
   4    -73.8547242 -0.240212E-04  0.592E-03    2.17       2.6  T
   5    -73.8547243 -0.187714E-06  0.355E-03    2.17       4.3  T
   6    -73.8547244 -0.369241E-07  0.184E-03    2.17       8.3  T
   7    -73.8547244 -0.405422E-07  0.573E-04    2.17      26.6  T
   8    -73.8547244 -0.494094E-08  0.316E-04    2.17      48.2  T
     SCC iter.                  ...        0 min,  0.114 sec
     gradient                   ...        0 min,  0.044 sec
 * total energy  :   -73.1648447 Eh     change       -0.7904716E-03 Eh
   gradient norm :     0.0152130 Eh/α   predicted    -0.4389184E-03 ( -44.47%)
   displ. norm   :     0.8361618 α      lambda       -0.2960649E-02
   maximum displ.:     0.3757836 α      in ANC's #8, #11, #42, ...

........................................................................
.............................. CYCLE   33 ..............................
........................................................................

 iter      E             dE          RMSdq      gap      omega  full diag
   1    -73.8465509 -0.738466E+02  0.361E-01    2.18       0.0  T
   2    -73.8468745 -0.323677E-03  0.217E-01    2.13       1.0  T
   3    -73.8468816 -0.702112E-05  0.147E-01    2.17       1.0  T
   4    -73.8471999 -0.318383E-03  0.233E-02    2.15       1.0  T
   5    -73.8472050 -0.509456E-05  0.129E-02    2.15       1.2  T
   6    -73.8472067 -0.167613E-05  0.733E-03    2.15       2.1  T
   7    -73.8472069 -0.224061E-06  0.242E-03    2.15       6.3  T
   8    -73.8472070 -0.470499E-07  0.892E-04    2.15      17.1  T
   9    -73.8472070 -0.103574E-07  0.475E-04    2.15      32.1  T
     SCC iter.                  ...        0 min,  0.283 sec
     gradient                   ...        0 min,  0.117 sec
 * total energy  :   -73.1652871 Eh     change       -0.4424308E-03 Eh
   gradient norm :     0.0652868 Eh/α   predicted    -0.2515316E-02 ( 468.52%)
   displ. norm   :     0.2502836 α      lambda       -0.2830902E-02
   maximum displ.:     0.0790994 α      in ANC's #23, #63, #44, ...

........................................................................
.............................. CYCLE   34 ..............................
........................................................................

 iter      E             dE          RMSdq      gap      omega  full diag
   1    -73.8543728 -0.738544E+02  0.158E-01    2.15       0.0  T
   2    -73.8544731 -0.100329E-03  0.102E-01    2.18       1.0  T
   3    -73.8545314 -0.583157E-04  0.630E-02    2.16       1.0  T
   4    -73.8545711 -0.397059E-04  0.130E-02    2.17       1.2  T
   5    -73.8545729 -0.176435E-05  0.622E-03    2.17       2.5  T
   6    -73.8545735 -0.666735E-06  0.313E-03    2.17       4.9  T
   7    -73.8545736 -0.298193E-07  0.138E-03    2.17      11.0  T
   8    -73.8545736 -0.754504E-08  0.485E-04    2.17      31.4  T
   9    -73.8545736 -0.273440E-08  0.150E-04    2.17     101.4  T
     SCC iter.                  ...        0 min,  0.248 sec
     gradient                   ...        0 min,  0.082 sec
 * total energy  :   -73.1663709 Eh     change       -0.1083745E-02 Eh
   gradient norm :     0.0366265 Eh/α   predicted    -0.1504122E-02 (  38.79%)
   displ. norm   :     0.3014179 α      lambda       -0.6468355E-03
   maximum displ.:     0.1457181 α      in ANC's #11, #22, #23, ...

........................................................................
.............................. CYCLE   35 ..............................
........................................................................

 iter      E             dE          RMSdq      gap      omega  full diag
   1    -73.8557979 -0.738558E+02  0.692E-02    2.16       0.0  T
   2    -73.8558133 -0.154252E-04  0.413E-02    2.16       1.0  T
   3    -73.8558137 -0.421258E-06  0.143E-02    2.15       1.1  T
   4    -73.8558149 -0.117006E-05  0.730E-03    2.15       2.1  T
   5    -73.8558159 -0.104360E-05  0.259E-03    2.15       5.9  T
   6    -73.8558160 -0.382433E-07  0.159E-03    2.15       9.6  T
   7    -73.8558160 -0.210188E-07  0.631E-04    2.15      24.2  T
   8    -73.8558160 -0.562370E-08  0.339E-04    2.15      45.0  T
     SCC iter.                  ...        0 min,  0.759 sec
     gradient                   ...        0 min,  0.133 sec
 * total energy  :   -73.1667197 Eh     change       -0.3487865E-03 Eh
   gradient norm :     0.0400637 Eh/α   predicted    -0.3528125E-03 (   1.15%)
   displ. norm   :     0.7827940 α      lambda       -0.2518604E-02
   maximum displ.:     0.3923302 α      in ANC's #8, #11, #22, ...

........................................................................
.............................. CYCLE   36 ..............................
........................................................................

 iter      E             dE          RMSdq      gap      omega  full diag
   1    -73.8463908 -0.738464E+02  0.322E-01    2.05       0.0  T
   2    -73.8466547 -0.263860E-03  0.198E-01    2.03       1.0  T
   3    -73.8466472  0.747675E-05  0.135E-01    2.06       1.0  T
   4    -73.8469183 -0.271112E-03  0.228E-02    2.04       1.0  T
   5    -73.8469223 -0.402239E-05  0.122E-02    2.05       1.2  T
   6    -73.8469237 -0.133558E-05  0.631E-03    2.04       2.4  T
   7    -73.8469238 -0.128691E-06  0.191E-03    2.04       8.0  T
   8    -73.8469238 -0.411805E-07  0.584E-04    2.04      26.1  T
   9    -73.8469238 -0.365246E-08  0.288E-04    2.04      53.0  T
     SCC iter.                  ...        0 min,  0.732 sec
     gradient                   ...        0 min,  0.083 sec
 * total energy  :   -73.1685461 Eh     change       -0.1826421E-02 Eh
   gradient norm :     0.0752652 Eh/α   predicted    -0.2031035E-02 (  11.20%)
   displ. norm   :     0.6490364 α      lambda       -0.4310111E-02
   maximum displ.:     0.2159557 α      in ANC's #57, #26, #39, ...

........................................................................
.............................. CYCLE   37 ..............................
........................................................................

 iter      E             dE          RMSdq      gap      omega  full diag
   1    -73.8392409 -0.738392E+02  0.527E-01    1.54       0.0  T
   2    -73.8427642 -0.352331E-02  0.287E-01    1.72       1.0  T
   3    -73.8429590 -0.194742E-03  0.178E-01    1.74       1.0  T
   4    -73.8431811 -0.222131E-03  0.675E-02    1.73       1.0  T
   5    -73.8432404 -0.592925E-04  0.168E-02    1.74       1.0  T
   6    -73.8432431 -0.268921E-05  0.936E-03    1.74       1.6  T
   7    -73.8432438 -0.733140E-06  0.464E-03    1.74       3.3  T
   8    -73.8432439 -0.654778E-07  0.153E-03    1.74      10.0  T
   9    -73.8432439 -0.407837E-07  0.716E-04    1.74      21.3  T
  10    -73.8432439 -0.383933E-08  0.383E-04    1.74      39.9  T
     SCC iter.                  ...        0 min,  1.586 sec
     gradient                   ...        0 min,  0.102 sec
 * total energy  :   -73.1730060 Eh     change       -0.4459952E-02 Eh
   gradient norm :     0.1234583 Eh/α   predicted    -0.3063009E-02 ( -31.32%)
   displ. norm   :     0.7347487 α      lambda       -0.1115787E-01
   maximum displ.:     0.3468507 α      in ANC's #57, #59, #52, ...

........................................................................
.............................. CYCLE   38 ..............................
........................................................................

 iter      E             dE          RMSdq      gap      omega  full diag
   1    -73.7286267 -0.737286E+02  0.172E+00    1.36       0.0  T
   2    -73.7762236 -0.475969E-01  0.141E+00    2.12       1.0  T
   3    -73.8401711 -0.639475E-01  0.416E-01    1.49       1.0  T
   4    -73.8429450 -0.277396E-02  0.211E-01    1.41       1.0  T
   5    -73.8427228  0.222258E-03  0.109E-01    1.38       1.0  T
   6    -73.8430933 -0.370483E-03  0.257E-02    1.41       1.0  T
   7    -73.8430989 -0.565856E-05  0.139E-02    1.42       1.1  T
   8    -73.8431014 -0.252435E-05  0.673E-03    1.42       2.3  T
   9    -73.8431019 -0.419271E-06  0.196E-03    1.42       7.8  T
  10    -73.8431019 -0.388497E-07  0.128E-03    1.42      12.0  T
  11    -73.8431019 -0.106329E-07  0.681E-04    1.42      22.4  T
  12    -73.8431019 -0.490932E-08  0.294E-04    1.42      51.8  T
     SCC iter.                  ...        0 min,  0.437 sec
     gradient                   ...        0 min,  0.087 sec
 * total energy  :   -73.1711637 Eh     change        0.1842326E-02 Eh
   gradient norm :     0.2187063 Eh/α   predicted    -0.8591248E-02 (-566.33%)
   displ. norm   :     0.3455275 α      lambda       -0.1453557E-01
   maximum displ.:     0.1912513 α      in ANC's #57, #59, #52, ...

........................................................................
.............................. CYCLE   39 ..............................
........................................................................

 iter      E             dE          RMSdq      gap      omega  full diag
   1    -73.8396465 -0.738396E+02  0.523E-01    1.78       0.0  T
   2    -73.8460939 -0.644738E-02  0.241E-01    1.53       1.0  T
   3    -73.8466880 -0.594154E-03  0.144E-01    1.60       1.0  T
   4    -73.8467227 -0.346835E-04  0.616E-02    1.56       1.0  T
   5    -73.8467795 -0.567834E-04  0.175E-02    1.57       1.0  T
   6    -73.8467822 -0.267662E-05  0.949E-03    1.57       1.6  T
   7    -73.8467833 -0.111124E-05  0.489E-03    1.57       3.1  T
   8    -73.8467834 -0.986303E-07  0.189E-03    1.57       8.1  T
   9    -73.8467834 -0.517163E-07  0.951E-04    1.57      16.0  T
  10    -73.8467834 -0.743427E-08  0.440E-04    1.57      34.7  T
     SCC iter.                  ...        0 min,  0.486 sec
     gradient                   ...        0 min,  0.129 sec
 * total energy  :   -73.1776144 Eh     change       -0.6450699E-02 Eh
   gradient norm :     0.1726891 Eh/α   predicted    -0.8135012E-02 (  26.11%)
   displ. norm   :     0.4183846 α      lambda       -0.7064142E-02
   maximum displ.:     0.1537070 α      in ANC's #29, #31, #15, ...

........................................................................
.............................. CYCLE   40 ..............................
........................................................................

 iter      E             dE          RMSdq      gap      omega  full diag
   1    -73.8496379 -0.738496E+02  0.333E-01    1.72       0.0  T
   2    -73.8508304 -0.119241E-02  0.180E-01    1.61       1.0  T
   3    -73.8508781 -0.477297E-04  0.998E-02    1.64       1.0  T
   4    -73.8509079 -0.298239E-04  0.304E-02    1.62       1.0  T
   5    -73.8509228 -0.148638E-04  0.121E-02    1.63       1.3  T
   6    -73.8509232 -0.377462E-06  0.682E-03    1.63       2.2  T
   7    -73.8509234 -0.216002E-06  0.307E-03    1.63       5.0  T
   8    -73.8509235 -0.936361E-07  0.968E-04    1.63      15.7  T
   9    -73.8509235 -0.736298E-08  0.583E-04    1.63      26.1  T
     SCC iter.                  ...        0 min,  0.370 sec
     gradient                   ...        0 min,  0.047 sec
 * total energy  :   -73.1765804 Eh     change        0.1034044E-02 Eh
   gradient norm :     0.1552659 Eh/α   predicted    -0.4150303E-02 (-501.37%)
   displ. norm   :     0.3520536 α      lambda       -0.6912968E-02
   maximum displ.:     0.1156790 α      in ANC's #12, #19, #15, ...

........................................................................
.............................. CYCLE   41 ..............................
........................................................................

 iter      E             dE          RMSdq      gap      omega  full diag
   1    -73.8363960 -0.738364E+02  0.503E-01    1.41       0.0  T
   2    -73.8413043 -0.490830E-02  0.311E-01    1.66       1.0  T
   3    -73.8440818 -0.277750E-02  0.119E-01    1.53       1.0  T
   4    -73.8440985 -0.166359E-04  0.543E-02    1.54       1.0  T
   5    -73.8441255 -0.270769E-04  0.154E-02    1.54       1.0  T
   6    -73.8441297 -0.418039E-05  0.665E-03    1.54       2.3  T
   7    -73.8441302 -0.520692E-06  0.365E-03    1.54       4.2  T
   8    -73.8441303 -0.657943E-07  0.137E-03    1.54      11.1  T
   9    -73.8441303 -0.157197E-07  0.637E-04    1.54      24.0  T
  10    -73.8441303 -0.346600E-08  0.332E-04    1.54      46.0  T
     SCC iter.                  ...        0 min,  0.176 sec
     gradient                   ...        0 min,  0.092 sec
 * total energy  :   -73.1816063 Eh     change       -0.5025953E-02 Eh
   gradient norm :     0.1775151 Eh/α   predicted    -0.3884937E-02 ( -22.70%)
   displ. norm   :     0.5762133 α      lambda       -0.1626200E-01
   maximum displ.:     0.1685778 α      in ANC's #24, #57, #35, ...

........................................................................
.............................. CYCLE   42 ..............................
........................................................................

 iter      E             dE          RMSdq      gap      omega  full diag
   1    -73.8527245 -0.738527E+02  0.729E-01    1.44       0.0  T
   2    -73.8575316 -0.480706E-02  0.610E-01    1.70       1.0  T
   3    -73.8689369 -0.114053E-01  0.193E-01    1.51       1.0  T
   4    -73.8689057  0.311465E-04  0.744E-02    1.51       1.0  T
   5    -73.8690005 -0.947974E-04  0.265E-02    1.51       1.0  T
   6    -73.8690095 -0.893762E-05  0.143E-02    1.51       1.1  T
   7    -73.8690104 -0.936739E-06  0.698E-03    1.51       2.2  T
   8    -73.8690107 -0.283642E-06  0.243E-03    1.51       6.3  T
   9    -73.8690108 -0.779429E-07  0.970E-04    1.51      15.7  T
  10    -73.8690108 -0.385377E-08  0.602E-04    1.51      25.3  T
     SCC iter.                  ...        0 min,  0.087 sec
     gradient                   ...        0 min,  0.046 sec
 * total energy  :   -73.1817236 Eh     change       -0.1172446E-03 Eh
   gradient norm :     0.2116109 Eh/α   predicted    -0.1083073E-01 (9137.72%)
   displ. norm   :     0.4060962 α      lambda       -0.1672626E-01
   maximum displ.:     0.1413302 α      in ANC's #25, #24, #12, ...
 * RMSD in coord.:     0.9606548 α      energy gain  -0.6562675E-01 Eh

generating ANC from exact Hessian ...
Using Lindh-Hessian (1995)
 Shifting diagonal of input Hessian by    1.0506201608600323E-002
 Lowest  eigenvalues of input Hessian
    0.010000    0.010167    0.010330    0.000000    0.000000    0.000000
    0.000000    0.000000    0.000000    0.010650    0.010881    0.010980
    0.011043    0.011181    0.011258    0.011392    0.011493    0.011590
 Highest eigenvalues
    1.696969    1.871896    1.888858    1.907655    2.094872    2.263042


........................................................................
.............................. CYCLE   43 ..............................
........................................................................

 iter      E             dE          RMSdq      gap      omega  full diag
   1    -73.8631650 -0.738632E+02  0.330E-01    1.54       0.0  T
   2    -73.8636243 -0.459329E-03  0.219E-01    1.59       1.0  T
   3    -73.8648410 -0.121667E-02  0.123E-01    1.54       1.0  T
   4    -73.8649740 -0.133031E-03  0.296E-02    1.56       1.0  T
   5    -73.8649873 -0.132676E-04  0.105E-02    1.55       1.5  T
   6    -73.8649878 -0.488594E-06  0.642E-03    1.55       2.4  T
   7    -73.8649881 -0.314205E-06  0.267E-03    1.55       5.7  T
   8    -73.8649881 -0.397581E-07  0.690E-04    1.55      22.1  T
   9    -73.8649881 -0.332660E-08  0.402E-04    1.55      37.9  T
     SCC iter.                  ...        0 min,  0.154 sec
     gradient                   ...        0 min,  0.045 sec
 * total energy  :   -73.1942605 Eh     change       -0.1253696E-01 Eh
   gradient norm :     0.2056547 Eh/α   predicted     0.0000000E+00 (-100.00%)
   displ. norm   :     0.3855772 α      lambda       -0.4249057E-01
   maximum displ.:     0.1515681 α      in ANC's #26, #61, #29, ...

........................................................................
.............................. CYCLE   44 ..............................
........................................................................

 iter      E             dE          RMSdq      gap      omega  full diag
   1    -73.9033372 -0.739033E+02  0.556E-01    1.84       0.0  T
   2    -73.9059662 -0.262901E-02  0.416E-01    1.84       1.0  T
   3    -73.9118216 -0.585543E-02  0.130E-01    1.78       1.0  T
   4    -73.9118851 -0.635331E-04  0.401E-02    1.79       1.0  T
   5    -73.9119012 -0.160327E-04  0.153E-02    1.79       1.0  T
   6    -73.9119042 -0.298885E-05  0.718E-03    1.79       2.1  T
   7    -73.9119044 -0.279979E-06  0.369E-03    1.79       4.1  T
   8    -73.9119045 -0.295923E-07  0.122E-03    1.79      12.5  T
   9    -73.9119045 -0.239827E-07  0.610E-04    1.79      25.0  T
  10    -73.9119045 -0.178643E-08  0.245E-04    1.79      62.3  T
     SCC iter.                  ...        0 min,  0.241 sec
     gradient                   ...        0 min,  0.091 sec
 * total energy  :   -73.2296843 Eh     change       -0.3542381E-01 Eh
   gradient norm :     0.1498144 Eh/α   predicted    -0.2442580E-01 ( -31.05%)
   displ. norm   :     0.5054645 α      lambda       -0.5285114E-01
   maximum displ.:     0.1763978 α      in ANC's #26, #29, #118, ...

........................................................................
.............................. CYCLE   45 ..............................
........................................................................

 iter      E             dE          RMSdq      gap      omega  full diag
   1    -73.9573512 -0.739574E+02  0.110E+00    2.68       0.0  T
   2    -73.9832044 -0.258532E-01  0.520E-01    1.91       1.0  T
   3    -73.9907292 -0.752479E-02  0.241E-01    1.97       1.0  T
   4    -73.9910391 -0.309959E-03  0.114E-01    1.85       1.0  T
   5    -73.9913059 -0.266776E-03  0.521E-02    1.92       1.0  T
   6    -73.9913265 -0.205756E-04  0.220E-02    1.92       1.0  T
   7    -73.9913296 -0.318131E-05  0.162E-02    1.90       1.0  T
   8    -73.9913360 -0.631492E-05  0.345E-03    1.91       4.4  T
   9    -73.9913360 -0.231879E-07  0.229E-03    1.91       6.7  T
  10    -73.9913361 -0.108190E-06  0.882E-04    1.91      17.3  T
  11    -73.9913361 -0.139162E-07  0.226E-04    1.91      67.5  T
     SCC iter.                  ...        0 min,  0.132 sec
     gradient                   ...        0 min,  0.084 sec
 * total energy  :   -73.2490057 Eh     change       -0.1932140E-01 Eh
   gradient norm :     0.1529121 Eh/α   predicted    -0.3317720E-01 (  71.71%)
   displ. norm   :     0.4031505 α      lambda       -0.2709183E-01
   maximum displ.:     0.2209419 α      in ANC's #26, #29, #27, ...

........................................................................
.............................. CYCLE   46 ..............................
........................................................................

 iter      E             dE          RMSdq      gap      omega  full diag
   1    -73.9637853 -0.739638E+02  0.279E-01    1.76       0.0  T
   2    -73.9650326 -0.124732E-02  0.206E-01    1.91       1.0  T
   3    -73.9659288 -0.896226E-03  0.971E-02    1.85       1.0  T
   4    -73.9659513 -0.224828E-04  0.588E-02    1.86       1.0  T
   5    -73.9659704 -0.190799E-04  0.169E-02    1.86       1.0  T
   6    -73.9659737 -0.327189E-05  0.962E-03    1.86       1.6  T
   7    -73.9659741 -0.409980E-06  0.374E-03    1.86       4.1  T
   8    -73.9659742 -0.107341E-06  0.148E-03    1.86      10.3  T
   9    -73.9659742 -0.182409E-07  0.754E-04    1.86      20.2  T
  10    -73.9659742 -0.389596E-08  0.301E-04    1.86      50.7  T
     SCC iter.                  ...        0 min,  0.157 sec
     gradient                   ...        0 min,  0.085 sec
 * total energy  :   -73.2618550 Eh     change       -0.1284922E-01 Eh
   gradient norm :     0.0581011 Eh/α   predicted    -0.1574754E-01 (  22.56%)
   displ. norm   :     0.5177748 α      lambda       -0.1002970E-01
   maximum displ.:     0.3105234 α      in ANC's #26, #16, #24, ...

........................................................................
.............................. CYCLE   47 ..............................
........................................................................

 iter      E             dE          RMSdq      gap      omega  full diag
   1    -73.9674279 -0.739674E+02  0.359E-01    1.97       0.0  T
   2    -73.9685287 -0.110074E-02  0.216E-01    1.75       1.0  T
[...]
H10-C6-C1=119.76               H10-C6-C5=120.09               

 selected dihedral angles (degree)
 ---------------------------------
C3-C2-C1-C6=  0.71            C3-C2-C1-C11=177.43           H7-C2-C1-C6=182.49            H7-C2-C1-C11=359.21           
C4-C3-C2-C1=359.63            C4-C3-C2-H7=177.88            H8-C3-C2-C1=179.68            H8-C3-C2-H7=357.92            
C5-C4-C3-C2=  0.20            C5-C4-C3-H8=180.16            C21-C4-C3-C2=178.63           C21-C4-C3-H8=358.58           
C6-C5-C4-C3=359.62            C6-C5-C4-C21=181.27           H9-C5-C4-C3=177.67            H9-C5-C4-C21=359.32           
C5-C6-C1-C2=359.11            C5-C6-C1-C11=182.29           H10-C6-C1-C2=179.68           H10-C6-C1-C11=  2.86          
C1-C6-C5-C4=  0.72            C1-C6-C5-H9=182.64            H10-C6-C5-C4=180.16           H10-C6-C5-H9=  2.07           

 CMA Distance (Angstroems)
 ---------------------------
R(CMA):  3.2348
           -------------------------------------------------
          |                Final Singlepoint                |
           -------------------------------------------------

          ...................................................
          :                      SETUP                      :
          :.................................................:
          :  # basis functions                 106          :
          :  # atomic orbitals                 106          :
          :  # shells                           64          :
          :  # electrons                       122          :
          :  max. iterations                   250          :
          :  Hamiltonian                  GFN2-xTB          :
          :  restarted?                      false          :
          :  GBSA solvation                   true          :
          :  PC potential                    false          :
          :  electronic temp.          300.0000000     K    :
          :  accuracy                    1.0000000          :
          :  -> integral cutoff          0.2500000E+02      :
          :  -> integral neglect         0.1000000E-07      :
          :  -> SCF convergence          0.1000000E-05 Eh   :
          :  -> wf. convergence          0.1000000E-03 e    :
          :  Broyden damping             0.4000000          :
          :  net charge                          2          :
          :  unpaired electrons                  0          :
          ...................................................

 iter      E             dE          RMSdq      gap      omega  full diag
   1    -74.0805648 -0.740806E+02  0.166E-04    2.14       0.0  T
   2    -74.0805648 -0.603677E-10  0.109E-04    2.14     140.1  T
   3    -74.0805648  0.149498E-10  0.667E-05    2.14     228.6  T

   *** convergence criteria satisfied after 3 iterations ***

         #    Occupation            Energy/Eh            Energy/eV
      -------------------------------------------------------------
         1        2.0000           -0.7764118             -21.1272
       ...           ...                  ...                  ...
        55        2.0000           -0.4508607             -12.2685
        56        2.0000           -0.4468510             -12.1594
        57        2.0000           -0.4425805             -12.0432
        58        2.0000           -0.4411456             -12.0042
        59        2.0000           -0.4300439             -11.7021
        60        2.0000           -0.3958362             -10.7713
        61        2.0000           -0.3848474             -10.4722 (HOMO)
        62                         -0.3063590              -8.3365 (LUMO)
        63                         -0.2633351              -7.1657
        64                         -0.2592913              -7.0557
        65                         -0.2115065              -5.7554
        66                         -0.1942769              -5.2865
       ...                                ...                  ...
       106                          1.0780346              29.3348
      -------------------------------------------------------------
                  HL-Gap            0.0784884 Eh            2.1358 eV
             Fermi-level           -0.3456032 Eh           -9.4043 eV

 SCC (total)                   0 d,  0 h,  0 min,  0.145 sec
 SCC setup                      ...        0 min,  0.009 sec (  6.342%)
 Dispersion                     ...        0 min,  0.006 sec (  4.126%)
 classical contributions        ...        0 min,  0.004 sec (  2.457%)
 integral evaluation            ...        0 min,  0.025 sec ( 16.975%)
 iterations                     ...        0 min,  0.023 sec ( 15.643%)
 molecular gradient             ...        0 min,  0.079 sec ( 54.047%)
 printout                       ...        0 min,  0.001 sec (  0.382%)

         :::::::::::::::::::::::::::::::::::::::::::::::::::::
         ::                     SUMMARY                     ::
         :::::::::::::::::::::::::::::::::::::::::::::::::::::
         :: total energy             -73.366647628343 Eh    ::
         :: total w/o Gsasa/hb       -73.312420305359 Eh    ::
         :: gradient norm              0.000121408291 Eh/a0 ::
         :: HOMO-LUMO gap              2.135777899999 eV    ::
         ::.................................................::
         :: SCC energy               -74.080061767455 Eh    ::
         :: -> isotropic ES            0.667544115517 Eh    ::
         :: -> anisotropic ES         -0.052646187214 Eh    ::
         :: -> anisotropic XC          0.009538533554 Eh    ::
         :: -> dispersion             -0.037663701869 Eh    ::
         :: -> Gsolv                  -0.416753407408 Eh    ::
         ::    -> Gelec               -0.362526084425 Eh    ::
         ::    -> Gsasa                0.004142609021 Eh    ::
         ::    -> Ghb                 -0.059450691703 Eh    ::
         ::    -> Gshift               0.001080759698 Eh    ::
         :: repulsion energy           0.713414139112 Eh    ::
         :: add. restraining           0.000000000000 Eh    ::
         :: total charge               2.000000000000 e     ::
         :::::::::::::::::::::::::::::::::::::::::::::::::::::

           -------------------------------------------------
          |                Property Printout                |
           -------------------------------------------------

    * Orbital Energies and Occupations

         #    Occupation            Energy/Eh            Energy/eV
      -------------------------------------------------------------
         1        2.0000           -0.7764118             -21.1272
       ...           ...                  ...                  ...
        49        2.0000           -0.4731479             -12.8750
        50        2.0000           -0.4651585             -12.6576
        51        2.0000           -0.4647833             -12.6474
        52        2.0000           -0.4609508             -12.5431
        53        2.0000           -0.4545818             -12.3698
        54        2.0000           -0.4520494             -12.3009
        55        2.0000           -0.4508607             -12.2685
        56        2.0000           -0.4468510             -12.1594
        57        2.0000           -0.4425805             -12.0432
        58        2.0000           -0.4411456             -12.0042
        59        2.0000           -0.4300439             -11.7021
        60        2.0000           -0.3958362             -10.7713
        61        2.0000           -0.3848474             -10.4722 (HOMO)
        62                         -0.3063590              -8.3365 (LUMO)
        63                         -0.2633351              -7.1657
        64                         -0.2592913              -7.0557
        65                         -0.2115065              -5.7554
        66                         -0.1942769              -5.2865
        67                         -0.1212786              -3.3002
        68                         -0.0346710              -0.9434
        69                         -0.0147554              -0.4015
        70                          0.0241761               0.6579
        71                          0.0469966               1.2788
        72                          0.0630005               1.7143
       ...                                ...                  ...
       106                          1.0780346              29.3348
      -------------------------------------------------------------
                  HL-Gap            0.0784884 Eh            2.1358 eV
             Fermi-level           -0.3456032 Eh           -9.4043 eV

     #   Z          covCN         q      C6AA      α(0)
     1   6 C        2.972    -0.007    28.191     8.709
     2   6 C        2.918    -0.025    28.627     8.774
     3   6 C        2.924    -0.016    28.410     8.741
     4   6 C        2.970    -0.019    28.471     8.752
     5   6 C        2.918    -0.027    28.681     8.782
     6   6 C        2.922    -0.023    28.581     8.767
     7   1 H        0.926     0.088     1.894     2.152
     8   1 H        0.926     0.069     2.100     2.266
     9   1 H        0.926     0.075     2.028     2.227
    10   1 H        0.926     0.093     1.854     2.129
    11   6 C        2.815     0.359    20.919     7.494
    12   8 O        1.350    -0.377    20.792     6.136
    13   8 O        1.858    -0.164    16.758     5.528
    14   6 C        3.679     0.046    20.017     6.409
    15   6 C        3.751    -0.166    23.793     6.956
    16   1 H        0.924     0.066     2.131     2.283
    17   1 H        0.924     0.094     1.839     2.121
    18   1 H        0.925     0.083     1.950     2.184
    19   1 H        0.925     0.082     1.958     2.188
    20   1 H        0.925     0.140     1.459     1.889
    21   6 C        2.696     0.368    20.763     7.458
    22   8 O        0.857    -0.467    23.071     6.440
    23   8 O        1.659    -0.418    21.201     6.216
    24   1 H        0.804     0.410     0.466     1.072
    25  48 Cd       3.433     0.386   192.635    26.641
    26   8 O        2.191    -0.569    24.373     6.668
    27   1 H        0.804     0.422     0.446     1.050
    28   1 H        0.805     0.375     0.533     1.146
    29   8 O        1.541    -0.770    29.705     7.353
    30   1 H        0.798     0.466     0.381     0.970
    31   1 H        0.821     0.276     0.795     1.399
    32   8 O        2.397    -0.465    22.100     6.349
    33   1 H        0.804     0.460     0.389     0.979
    34   1 H        0.798     0.464     0.383     0.973
    35   8 O        2.145    -0.568    24.354     6.665
    36   1 H        0.805     0.392     0.500     1.110
    37   1 H        0.805     0.377     0.529     1.142
    38   8 O        2.103    -0.525    23.386     6.531
    39   1 H        0.805     0.403     0.480     1.088
    40   1 H        0.805     0.387     0.509     1.121
    41   8 O        1.924    -0.535    23.595     6.560
    42   1 H        0.805     0.381     0.521     1.134
    43   1 H        0.805     0.381     0.521     1.133

 Mol. C6AA /au·bohr⁶  :      17685.938577
 Mol. C8AA /au·bohr⁸  :     477469.141341
 Mol. α(0) /au        :        205.685420


Wiberg/Mayer (AO) data.
largest (>0.10) Wiberg bond orders for each atom

 ---------------------------------------------------------------------------
     #   Z sym  total        # sym  WBO       # sym  WBO       # sym  WBO
 ---------------------------------------------------------------------------
     1   6 C    3.986 --     6 C    1.388     2 C    1.385    11 C    0.990
     2   6 C    3.985 --     3 C    1.455     1 C    1.385     7 H    0.961
                             5 C    0.106
     3   6 C    3.985 --     2 C    1.455     4 C    1.387     8 H    0.964
                             6 C    0.108
     4   6 C    3.986 --     5 C    1.392     3 C    1.387    21 C    0.991
     5   6 C    3.987 --     6 C    1.453     4 C    1.392     9 H    0.959
                             2 C    0.106
     6   6 C    3.984 --     5 C    1.453     1 C    1.388    10 H    0.962
                             3 C    0.108
     7   1 H    0.992 --     2 C    0.961
     8   1 H    0.995 --     3 C    0.964
     9   1 H    0.994 --     5 C    0.959
    10   1 H    0.991 --     6 C    0.962
    11   6 C    3.920 --    12 O    1.618    13 O    1.211     1 C    0.990
    12   8 O    2.179 --    11 C    1.618    25 Cd   0.204    13 O    0.171
    13   8 O    2.491 --    11 C    1.211    14 C    0.891    12 O    0.171
                            25 Cd   0.119
    14   6 C    3.879 --    15 C    1.010    16 H    0.967    17 H    0.958
                            13 O    0.891
    15   6 C    3.966 --    14 C    1.010    19 H    0.981    18 H    0.976
                            20 H    0.953
    16   1 H    0.995 --    14 C    0.967
    17   1 H    0.991 --    14 C    0.958
    18   1 H    0.992 --    15 C    0.976
    19   1 H    0.993 --    15 C    0.981
    20   1 H    0.980 --    15 C    0.953
    21   6 C    3.901 --    22 O    1.703    23 O    1.161     4 C    0.991
    22   8 O    1.993 --    21 C    1.703    23 O    0.162
    23   8 O    2.185 --    21 C    1.161    24 H    0.804    22 O    0.162
    24   1 H    0.832 --    23 O    0.804
    25  48 Cd   2.194 --    29 O    0.611    26 O    0.304    38 O    0.273
                            35 O    0.266    41 O    0.231    12 O    0.204
                            13 O    0.119
    26   8 O    2.068 --    28 H    0.849    27 H    0.801    25 Cd   0.304
    27   1 H    0.821 --    26 O    0.801
    28   1 H    0.859 --    26 O    0.849
    29   8 O    1.732 --    31 H    0.907    25 Cd   0.611
    30   1 H    0.783 --    32 O    0.695
    31   1 H    0.923 --    29 O    0.907
    32   8 O    2.290 --    33 H    0.784    34 H    0.697    30 H    0.695
    33   1 H    0.788 --    32 O    0.784
    34   1 H    0.785 --    32 O    0.697
    35   8 O    2.046 --    37 H    0.850    36 H    0.838    25 Cd   0.266
    36   1 H    0.846 --    35 O    0.838
    37   1 H    0.857 --    35 O    0.850
    38   8 O    2.144 --    40 H    0.837    39 H    0.826    25 Cd   0.273
    39   1 H    0.838 --    38 O    0.826
    40   1 H    0.850 --    38 O    0.837
    41   8 O    2.095 --    43 H    0.841    42 H    0.837    25 Cd   0.231
    42   1 H    0.855 --    41 O    0.837
    43   1 H    0.854 --    41 O    0.841
 ---------------------------------------------------------------------------

Topologies differ in total number of bonds
Writing topology from bond orders to xtbtopo.mol

molecular dipole:
                 x           y           z       tot (Debye)
 q only:       23.132       0.040       2.553
   full:       22.236      -0.789       2.362      56.871
molecular quadrupole (traceless):
                xx          xy          yy          xz          yz          zz
 q only:      223.646      27.409     -91.878      19.081     -18.638    -131.768
  q+dip:      205.475      20.283     -82.305      15.813     -20.030    -123.170
   full:      203.373      20.184     -81.148      15.833     -17.246    -122.225

           -------------------------------------------------
          |                Geometry Summary                 |
           -------------------------------------------------

      molecular mass/u    :      414.6876625
   center of mass at/Å    :        2.6117072      -0.9415048      -0.2077830
  moments of inertia/u·Å² :        0.9503363E+03   0.5230456E+04   0.5565124E+04
rotational constants/cm⁻¹ :        0.1773860E-01   0.3222976E-02   0.3029157E-02

 * 35 selected distances

     #   Z          #   Z                                           value/Å
     1   6 C        2   6 C                                       1.3942000
     2   6 C        3   6 C                                       1.3808799
     3   6 C        4   6 C                                       1.3938043
     4   6 C        5   6 C                                       1.3938010
     1   6 C        6   6 C                                       1.3932169
     5   6 C        6   6 C                                       1.3820262
     2   6 C        7   1 H                                       1.0779303
     3   6 C        8   1 H                                       1.0787658
     5   6 C        9   1 H                                       1.0790270
     6   6 C       10   1 H                                       1.0782737
    11   6 C       12   8 O                                       1.2231654
    11   6 C       13   8 O                                       1.3098609
    13   8 O       14   6 C                                       1.4461324
    14   6 C       15   6 C                                       1.5212423
    14   6 C       16   1 H                                       1.0914055
    14   6 C       17   1 H                                       1.0923385
    15   6 C       18   1 H                                       1.0850221
    15   6 C       19   1 H                                       1.0851650
    15   6 C       20   1 H                                       1.0846313
    21   6 C       22   8 O                                       1.2125900
    21   6 C       23   8 O                                       1.3292877
    23   8 O       24   1 H                                       0.9748648
    26   8 O       27   1 H                                       0.9734941
    26   8 O       28   1 H                                       0.9638044
    25  48 Cd      29   8 O                                       1.9650611 (max)
    29   8 O       31   1 H                                       0.9574247 (min)
    30   1 H       32   8 O                                       1.0090948
    32   8 O       33   1 H                                       0.9739676
Note: The following floating-point exceptions are signalling: IEEE_UNDERFLOW_FLAG IEEE_DENORMAL
normal termination of xtb
    32   8 O       34   1 H                                       1.0096269
    35   8 O       36   1 H                                       0.9670698
    35   8 O       37   1 H                                       0.9655195
    38   8 O       39   1 H                                       0.9700499
    38   8 O       40   1 H                                       0.9670469
    41   8 O       42   1 H                                       0.9673217
    41   8 O       43   1 H                                       0.9662920

 * 5 distinct bonds (by element types)

   Z      Z             #   av. dist./Å        max./Å        min./Å
   1 H    6 C           9     1.0836177     1.0923385     1.0779303
   6 C    6 C           7     1.4084529     1.5212423     1.3808799
   1 H    8 O          13     0.9742752     1.0096269     0.9574247
   6 C    8 O           5     1.3042073     1.4461324     1.2125900
   8 O   48 Cd          1     1.9650611     1.9650611     1.9650611


optimized geometry written to: xtbopt.xyz


           -------------------------------------------------
          | TOTAL ENERGY              -73.366647628343 Eh   |
          | GRADIENT NORM               0.000121408291 Eh/α |
          | HOMO-LUMO GAP               2.135777899999 eV   |
           -------------------------------------------------

------------------------------------------------------------------------
 * finished run on 2026/05/26 at 02:24:17.634     
------------------------------------------------------------------------
 total:
 * wall-time:     0 d,  0 h,  0 min, 56.259 sec
 *  cpu-time:     0 d,  0 h,  1 min, 34.763 sec
 * ratio c/w:     1.684 speedup
 SCF:
 * wall-time:     0 d,  0 h,  0 min,  0.351 sec
 *  cpu-time:     0 d,  0 h,  0 min,  0.661 sec
 * ratio c/w:     1.883 speedup
 ANC optimizer:
 * wall-time:     0 d,  0 h,  0 min, 55.828 sec
 *  cpu-time:     0 d,  0 h,  1 min, 33.973 sec
 * ratio c/w:     1.683 speedup

