      -----------------------------------------------------------      
     |                   =====================                   |     
     |                           x T B                           |     
     |                   =====================                   |     
     |                         S. Grimme                         |     
     |          Mulliken Center for Theoretical Chemistry        |     
     |                    University of Bonn                     |     
      -----------------------------------------------------------      

   * xtb version 6.7.1 (edcfbbe) compiled by 'conda@c0858423619e' on 2025-09-04

   xtb is free software: you can redistribute it and/or modify it under
   the terms of the GNU Lesser General Public License as published by
   the Free Software Foundation, either version 3 of the License, or
   (at your option) any later version.
   
   xtb is distributed in the hope that it will be useful,
   but WITHOUT ANY WARRANTY; without even the implied warranty of
   MERCHANTABILITY or FITNESS FOR A PARTICULAR PURPOSE.  See the
   GNU Lesser General Public License for more details.
   
   Cite this work as:
   * C. Bannwarth, E. Caldeweyher, S. Ehlert, A. Hansen, P. Pracht,
     J. Seibert, S. Spicher, S. Grimme, WIREs Comput. Mol. Sci., 2020, 11,
     e01493. DOI: 10.1002/wcms.1493
   
   for GFN2-xTB:
   * C. Bannwarth, S. Ehlert and S. Grimme., J. Chem. Theory Comput., 2019,
     15, 1652-1671. DOI: 10.1021/acs.jctc.8b01176
   for GFN1-xTB:
   * S. Grimme, C. Bannwarth, P. Shushkov, J. Chem. Theory Comput., 2017,
     13, 1989-2009. DOI: 10.1021/acs.jctc.7b00118
   for GFN0-xTB:
   * P. Pracht, E. Caldeweyher, S. Ehlert, S. Grimme, ChemRxiv, 2019, preprint.
     DOI: 10.26434/chemrxiv.8326202.v1
   for GFN-FF:
   * S. Spicher and S. Grimme, Angew. Chem. Int. Ed., 2020, 59, 15665-15673.
     DOI: 10.1002/anie.202004239
   
   for ALPB and GBSA implicit solvation:
   * S. Ehlert, M. Stahn, S. Spicher, S. Grimme, J. Chem. Theory Comput.,
     2021, 17, 4250-4261. DOI: 10.1021/acs.jctc.1c00471
   
   for ddCOSMO and CPCM-X implicit solvation:
   * M. Stahn, S. Ehlert, S. Grimme, J. Phys. Chem. A,
     2023, XX, XXXX-XXXX. DOI: 10.1021/acs.jpca.3c04382
   
   for DFT-D4:
   * E. Caldeweyher, C. Bannwarth and S. Grimme, J. Chem. Phys., 2017,
     147, 034112. DOI: 10.1063/1.4993215
   * E. Caldeweyher, S. Ehlert, A. Hansen, H. Neugebauer, S. Spicher,
     C. Bannwarth and S. Grimme, J. Chem. Phys., 2019, 150, 154122.
     DOI: 10.1063/1.5090222
   * E. Caldeweyher, J.-M. Mewes, S. Ehlert and S. Grimme, Phys. Chem. Chem. Phys.
     2020, 22, 8499-8512. DOI: 10.1039/D0CP00502A
   
   for sTDA-xTB:
   * S. Grimme and C. Bannwarth, J. Chem. Phys., 2016, 145, 054103.
     DOI: 10.1063/1.4959605
   
   in the mass-spec context:
   * V. Asgeirsson, C. Bauer and S. Grimme, Chem. Sci., 2017, 8, 4879.
     DOI: 10.1039/c7sc00601b
   * J. Koopman and S. Grimme, ACS Omega 2019, 4, 12, 15120-15133.
     DOI: 10.1021/acsomega.9b02011
   
   for metadynamics refer to:
   * S. Grimme, J. Chem. Theory Comput., 2019, 155, 2847-2862
     DOI: 10.1021/acs.jctc.9b00143
   
   for SPH calculations refer to:
   * S. Spicher and S. Grimme, J. Chem. Theory Comput., 2021, 17, 1701-1714
     DOI: 10.1021/acs.jctc.0c01306
   
   for ONIOM refer to:
   * C. Plett, A. Katbashev, S. Ehlert, S. Grimme, M. Bursch,
     Phys. Chem. Chem. Phys., 2023, 25, 17860-17868. DOI: 10.1039/D3CP02178E
   
   for DIPRO refer to:
   * J. Kohn, N. Gildemeister, S. Grimme, D. Fazzi, A. Hansen,
     J. Chem. Phys., 2023, just accepted.
   
   for PTB refer to:
   * S. Grimme, M. Mueller, A. Hansen, J. Chem. Phys., 2023, 158, 124111.
     DOI: 10.1063/5.0137838
   
   with help from (in alphabetical order)
   P. Atkinson, C. Bannwarth, F. Bohle, G. Brandenburg, E. Caldeweyher
   M. Checinski, S. Dohm, S. Ehlert, S. Ehrlich, I. Gerasimov, C. Hölzer
   A. Katbashev, J. Kohn, J. Koopman, C. Lavigne, S. Lehtola, F. März, M. Müller,
   F. Musil, H. Neugebauer, J. Pisarek, C. Plett, P. Pracht, F. Pultar,
   J. Seibert, P. Shushkov, S. Spicher, M. Stahn, M. Steiner, T. Strunk,
   J. Stückrath, T. Rose, and J. Unsleber
   
 * started run on 2026/05/26 at 02:22:10.166     
   ID    Z sym.   atoms
    1    6 C      1-6, 11, 14, 15, 21, 24, 25
    2    1 H      7-10, 16-20, 26-30, 33, 34, 36, 37, 39, 40, 42, 43, 45, 46,
                  48, 49
    3    8 O      12, 13, 22, 23, 32, 35, 38, 41, 44, 47
    4   48 Cd     31

           -------------------------------------------------
          |                Calculation Setup                |
           -------------------------------------------------

          program call               : /content/xtb_env/bin/xtb input.xyz --gfn 2 --opt tight --alpb water --chrg 2 --uhf 0
          hostname                   : 01035569fb61
          coordinate file            : input.xyz
          omp threads                :                     2


molecular fragmentation (1/2 indicates fragments):
1111111111111111111111111111112222222222222222222
# atoms in fragment 1/2:    30    19
 fragment masses (1/2) :      222.24      220.50
CMA distance (Bohr)    :  18.036
constraining FC (au)   :  0.0500

           -------------------------------------------------
          |                 G F N 2 - x T B                 |
           -------------------------------------------------

        Reference                      10.1021/acs.jctc.8b01176
      * Hamiltonian:
        H0-scaling (s, p, d)           1.850000    2.230000    2.230000
        zeta-weighting                 0.500000
      * Dispersion:
        s8                             2.700000
        a1                             0.520000
        a2                             5.000000
        s9                             5.000000
      * Repulsion:
        kExp                           1.500000    1.000000
        rExp                           1.000000
      * Coulomb:
        alpha                          2.000000
        third order                    shell-resolved
        anisotropic                    true
        a3                             3.000000
        a5                             4.000000
        cn-shift                       1.200000
        cn-exp                         4.000000
        max-rad                        5.000000

      * Solvation model:               ALPB
        Solvent                        water
        Parameter file                 internal GFN2-xTB/ALPB
        Dielectric constant                8.0200E+01
        Reference state                gsolv [1 M gas/solution]
        Free energy shift                  1.0808E-03 Eh       6.7819E-01 kcal/mol
        Temperature                        2.9815E+02 K
        Density                            1.0000E+00 kg/L
        Solvent mass                       1.8000E+01 g/mol
        Interaction kernel             P16
        Born radius scaling (c1)           1.4744E+00
        Born radii integrator          GBOBC
        Born offset                        0.0000E+00 a0       0.0000E+00 AA
        H-bond correction              true
        Ion screening                  false
        Surface tension                    1.0000E-05 Eh       1.5569E+01 dyn/cm
        Grid points                               230 per atom

          ...................................................
          :                      SETUP                      :
          :.................................................:
          :  # basis functions                 118          :
          :  # atomic orbitals                 118          :
          :  # shells                           72          :
          :  # electrons                       134          :
          :  max. iterations                   250          :
          :  Hamiltonian                  GFN2-xTB          :
          :  restarted?                      false          :
          :  GBSA solvation                   true          :
          :  PC potential                    false          :
          :  electronic temp.          300.0000000     K    :
          :  accuracy                    1.0000000          :
          :  -> integral cutoff          0.2500000E+02      :
          :  -> integral neglect         0.1000000E-07      :
          :  -> SCF convergence          0.1000000E-05 Eh   :
          :  -> wf. convergence          0.1000000E-03 e    :
          :  Broyden damping             0.4000000          :
          :  net charge                          2          :
          :  unpaired electrons                  0          :
          ...................................................

 iter      E             dE          RMSdq      gap      omega  full diag
   1    -79.1332594 -0.791333E+02  0.604E+00    0.01       0.0  T
   2    -78.7974512  0.335808E+00  0.449E+00    1.06       1.0  T
   3    -79.3350317 -0.537581E+00  0.315E+00    0.35       1.0  T
   4    -78.6444668  0.690565E+00  0.378E+00    0.78       1.0  T
   5    -79.3913587 -0.746892E+00  0.166E+00    0.74       1.0  T
   6    -79.4094785 -0.181197E-01  0.129E+00    0.67       1.0  T
   7    -79.4205163 -0.110378E-01  0.103E+00    0.52       1.0  T
   8    -79.0650167  0.355500E+00  0.284E+00    0.14       1.0  T
   9    -79.4274939 -0.362477E+00  0.808E-01    0.30       1.0  T
  10    -79.4345644 -0.707053E-02  0.609E-01    0.16       1.0  T
  11    -79.4004622  0.341022E-01  0.865E-01    0.04       1.0  T
  12    -79.4345999 -0.341377E-01  0.536E-01    0.17       1.0  T
  13    -79.4399848 -0.538489E-02  0.377E-01    0.12       1.0  T
  14    -79.4418165 -0.183165E-02  0.302E-01    0.11       1.0  T
  15    -79.4438390 -0.202253E-02  0.261E-01    0.07       1.0  T
  16    -79.4456227 -0.178372E-02  0.162E-01    0.07       1.0  T
  17    -79.4464760 -0.853281E-03  0.433E-02    0.08       1.0  T
  18    -79.4465948 -0.118812E-03  0.363E-02    0.08       1.0  T
  19    -79.4466267 -0.319260E-04  0.201E-02    0.08       1.0  T
  20    -79.4466431 -0.163812E-04  0.967E-03    0.08       1.5  T
  21    -79.4466471 -0.400878E-05  0.117E-03    0.08      12.2  T
  22    -79.4466471  0.179381E-07  0.113E-03    0.08      12.6  T
  23    -79.4466471  0.855766E-08  0.128E-03    0.08      11.2  T
  24    -79.4466472 -0.711211E-07  0.608E-04    0.08      23.5  T
  25    -79.4466472 -0.147853E-07  0.800E-05    0.08     178.6  T

   *** convergence criteria satisfied after 25 iterations ***

         #    Occupation            Energy/Eh            Energy/eV
      -------------------------------------------------------------
         1        2.0000           -0.7475082             -20.3407
       ...           ...                  ...                  ...
        61        2.0000           -0.3876643             -10.5489
        62        2.0000           -0.3874584             -10.5433
        63        2.0000           -0.3824023             -10.4057
        64        2.0000           -0.3187101              -8.6725
        65        2.0000           -0.3170083              -8.6262
        66        1.9640           -0.2752420              -7.4897
        67        1.5919           -0.2727350              -7.4215 (HOMO)
        68        0.3073           -0.2698206              -7.3422 (LUMO)
        69        0.1368           -0.2689604              -7.3188
        70                         -0.2285784              -6.2199
        71                         -0.2078994              -5.6572
        72                         -0.1468391              -3.9957
       ...                                ...                  ...
       118                          0.9424033              25.6441
      -------------------------------------------------------------
                  HL-Gap            0.0029144 Eh            0.0793 eV
             Fermi-level           -0.2714417 Eh           -7.3863 eV

 SCC (total)                   0 d,  0 h,  0 min,  0.521 sec
 SCC setup                      ...        0 min,  0.007 sec (  1.314%)
 Dispersion                     ...        0 min,  0.008 sec (  1.531%)
 classical contributions        ...        0 min,  0.004 sec (  0.694%)
 integral evaluation            ...        0 min,  0.025 sec (  4.751%)
 iterations                     ...        0 min,  0.368 sec ( 70.606%)
 molecular gradient             ...        0 min,  0.107 sec ( 20.525%)
 printout                       ...        0 min,  0.003 sec (  0.574%)

         :::::::::::::::::::::::::::::::::::::::::::::::::::::
         ::                     SUMMARY                     ::
         :::::::::::::::::::::::::::::::::::::::::::::::::::::
         :: total energy             -78.350327135111 Eh    ::
         :: total w/o Gsasa/hb       -78.268030991075 Eh    ::
         :: gradient norm              0.676303658511 Eh/a0 ::
         :: HOMO-LUMO gap              0.079305608169 eV    ::
         ::.................................................::
         :: SCC energy               -79.446874062178 Eh    ::
         :: -> isotropic ES            0.626243461326 Eh    ::
         :: -> anisotropic ES         -0.015172579434 Eh    ::
         :: -> anisotropic XC          0.020382920494 Eh    ::
         :: -> dispersion             -0.037523800885 Eh    ::
         :: -> Gsolv                  -0.365234067040 Eh    ::
         ::    -> Gelec               -0.282937923005 Eh    ::
         ::    -> Gsasa                0.001015284141 Eh    ::
         ::    -> Ghb                 -0.084392187875 Eh    ::
         ::    -> Gshift               0.001080759698 Eh    ::
         :: repulsion energy           1.096546927067 Eh    ::
         :: add. restraining           0.000000000000 Eh    ::
         :: total charge               2.000000000000 e     ::
         :::::::::::::::::::::::::::::::::::::::::::::::::::::

      ----------------------------------------------------------- 
     |                   =====================                   |
     |                        A N C O P T                        |
     |                   =====================                   |
     |               Approximate Normal Coordinate               |
     |                Rational Function Optimizer                |
      ----------------------------------------------------------- 
      ----------------------------------------------------------- 
     |                   =====================                   |
     |                        A N C O P T                        |
     |                   =====================                   |
     |               Approximate Normal Coordinate               |
     |                Rational Function Optimizer                |
      ----------------------------------------------------------- 

          ...................................................
          :                      SETUP                      :
          :.................................................:
          :   optimization level             tight          :
          :   max. optcycles                   245          :
          :   ANC micro-cycles                  20          :
          :   degrees of freedom               141          :
          :.................................................:
          :   RF solver                   davidson          :
          :   write xtbopt.log                true          :
          :   linear?                        false          :
          :   energy convergence         0.1000000E-05 Eh   :
          :   grad. convergence          0.8000000E-03 Eh/α :
          :   maxmium RF displ.          1.0000000          :
          :   Hlow (freq-cutoff)         0.1000000E-01      :
          :   Hmax (freq-cutoff)         5.0000000          :
          :   S6 in model hess.         20.0000000          :
          ...................................................

generating ANC from exact Hessian ...
Using Lindh-Hessian (1995)
 Shifting diagonal of input Hessian by    1.0204467472020811E-002
 Lowest  eigenvalues of input Hessian
    0.010000    0.010069    0.010089    0.010116    0.010129    0.010155
    0.010155    0.010182    0.000000    0.000000    0.000000    0.000000
    0.000000    0.000000    0.010257    0.010300    0.010325    0.010381
 Highest eigenvalues
    2.487523    2.492082    2.536885    2.540839    2.610994    2.615818


........................................................................
.............................. CYCLE    1 ..............................
........................................................................

 iter      E             dE          RMSdq      gap      omega  full diag
   1    -79.4466472 -0.794466E+02  0.222E-05    0.08       0.0  T
   2    -79.4466472  0.201459E-08  0.220E-04    0.08      64.8  T
   3    -79.4466472 -0.202725E-08  0.129E-05    0.08    1108.2  T
     SCC iter.                  ...        0 min,  0.089 sec
     gradient                   ...        0 min,  0.102 sec
 * total energy  :   -78.3503271 Eh     change       -0.2507079E-09 Eh
   gradient norm :     0.6762978 Eh/α   predicted     0.0000000E+00 (-100.00%)
   displ. norm   :     0.6254104 α      lambda       -0.3827146E+00
   maximum displ.:     0.3285632 α      in ANC's #108, #73, #104, ...

........................................................................
.............................. CYCLE    2 ..............................
........................................................................

 iter      E             dE          RMSdq      gap      omega  full diag
   1    -79.2798968 -0.792799E+02  0.234E+00    0.06       0.0  T
   2    -79.3418489 -0.619521E-01  0.199E+00    0.70       1.0  T
   3    -79.4461400 -0.104291E+00  0.111E+00    0.21       1.0  T
   4    -79.4233406  0.227994E-01  0.954E-01    0.04       1.0  T
   5    -79.4616032 -0.382626E-01  0.789E-01    0.15       1.0  T
   6    -79.4334738  0.281294E-01  0.841E-01    0.02       1.0  T
   7    -79.4423952 -0.892139E-02  0.948E-01    0.01       1.0  T
   8    -79.4456195 -0.322433E-02  0.772E-01    0.03       1.0  T
   9    -79.4674618 -0.218423E-01  0.562E-01    0.12       1.0  T
  10    -79.4771680 -0.970628E-02  0.197E-01    0.05       1.0  T
  11    -79.4782747 -0.110661E-02  0.116E-01    0.08       1.0  T
  12    -79.4785838 -0.309161E-03  0.593E-02    0.06       1.0  T
  13    -79.4787007 -0.116881E-03  0.389E-02    0.07       1.0  T
  14    -79.4787537 -0.529707E-04  0.428E-03    0.06       3.3  T
  15    -79.4787548 -0.117519E-05  0.452E-03    0.06       3.2  T
  16    -79.4787547  0.161919E-06  0.375E-03    0.06       3.8  T
  17    -79.4787554 -0.746802E-06  0.164E-03    0.06       8.7  T
  18    -79.4787556 -0.143567E-06  0.126E-03    0.06      11.3  T
  19    -79.4787556 -0.548545E-07  0.280E-04    0.06      51.0  T
  20    -79.4787556 -0.212722E-08  0.152E-04    0.06      93.8  T
     SCC iter.                  ...        0 min,  1.965 sec
     gradient                   ...        0 min,  0.142 sec
 * total energy  :   -78.5758982 Eh     change       -0.2255711E+00 Eh
   gradient norm :     0.3687492 Eh/α   predicted    -0.2662287E+00 (  18.02%)
   displ. norm   :     0.7599564 α      lambda       -0.2446573E+00
   maximum displ.:     0.4131618 α      in ANC's #73, #72, #75, ...

........................................................................
.............................. CYCLE    3 ..............................
........................................................................

 iter      E             dE          RMSdq      gap      omega  full diag
   1    -79.4249955 -0.794250E+02  0.209E+00    0.07       0.0  T
   2    -79.4552804 -0.302849E-01  0.187E+00    0.75       1.0  T
   3    -79.5513998 -0.961193E-01  0.105E+00    0.26       1.0  T
   4    -79.5656834 -0.142836E-01  0.759E-01    0.13       1.0  T
   5    -79.5670005 -0.131712E-02  0.725E-01    0.19       1.0  T
   6    -79.4897887  0.772118E-01  0.152E+00    0.04       1.0  T
   7    -79.4045515  0.852372E-01  0.155E+00    0.01       1.0  T
   8    -79.5760954 -0.171544E+00  0.422E-01    0.11       1.0  T
   9    -79.5808599 -0.476443E-02  0.227E-01    0.08       1.0  T
  10    -79.5814957 -0.635862E-03  0.192E-01    0.09       1.0  T
  11    -79.5810055  0.490266E-03  0.213E-01    0.05       1.0  T
  12    -79.5827693 -0.176380E-02  0.414E-02    0.07       1.0  T
  13    -79.5827680  0.127008E-05  0.411E-02    0.06       1.0  T
  14    -79.5828138 -0.457769E-04  0.231E-02    0.07       1.0  T
  15    -79.5828233 -0.954757E-05  0.180E-02    0.07       1.0  T
  16    -79.5828343 -0.110261E-04  0.695E-03    0.07       2.1  T
  17    -79.5828357 -0.139543E-05  0.542E-03    0.07       2.6  T
  18    -79.5828373 -0.158510E-05  0.262E-03    0.07       5.5  T
  19    -79.5828376 -0.332413E-06  0.106E-03    0.07      13.5  T
  20    -79.5828377 -0.439953E-07  0.456E-04    0.07      31.3  T
  21    -79.5828377 -0.803256E-08  0.183E-04    0.07      78.1  T
     SCC iter.                  ...        0 min,  2.138 sec
     gradient                   ...        0 min,  0.095 sec
 * total energy  :   -78.7641050 Eh     change       -0.1882068E+00 Eh
   gradient norm :     0.2874000 Eh/α   predicted    -0.1929776E+00 (   2.53%)
   displ. norm   :     0.7088161 α      lambda       -0.1527127E+00
   maximum displ.:     0.3589723 α      in ANC's #73, #72, #75, ...

........................................................................
.............................. CYCLE    4 ..............................
........................................................................

 iter      E             dE          RMSdq      gap      omega  full diag
   1    -79.6668458 -0.796668E+02  0.657E-01    0.24       0.0  T
   2    -79.3785530  0.288293E+00  0.263E+00    0.06       1.0  T
   3    -79.6700335 -0.291480E+00  0.394E-01    0.12       1.0  T
   4    -79.6031622  0.668712E-01  0.127E+00    0.02       1.0  T
   5    -79.6710964 -0.679341E-01  0.193E-01    0.11       1.0  T
   6    -79.6721498 -0.105347E-02  0.853E-02    0.11       1.0  T
   7    -79.6724024 -0.252560E-03  0.287E-02    0.10       1.0  T
   8    -79.6724171 -0.147566E-04  0.185E-02    0.11       1.0  T
   9    -79.6724264 -0.925733E-05  0.893E-03    0.11       1.6  T
  10    -79.6724268 -0.415716E-06  0.782E-03    0.11       1.8  T
  11    -79.6724292 -0.233240E-05  0.833E-04    0.10      17.1  T
  12    -79.6724291  0.122286E-07  0.985E-04    0.10      14.5  T
  13    -79.6724292 -0.358130E-07  0.128E-04    0.10     111.4  T
     SCC iter.                  ...        0 min,  0.891 sec
     gradient                   ...        0 min,  0.072 sec
 * total energy  :   -78.8994275 Eh     change       -0.1353225E+00 Eh
   gradient norm :     0.2879449 Eh/α   predicted    -0.1147194E+00 ( -15.23%)
   displ. norm   :     0.8233112 α      lambda       -0.1682597E+00
   maximum displ.:     0.3804116 α      in ANC's #73, #72, #69, ...

........................................................................
.............................. CYCLE    5 ..............................
........................................................................

 iter      E             dE          RMSdq      gap      omega  full diag
   1    -79.7790926 -0.797791E+02  0.767E-01    0.66       0.0  T
   2    -79.7815421 -0.244951E-02  0.360E-01    0.70       1.0  T
   3    -79.7815598 -0.177524E-04  0.191E-01    0.60       1.0  T
   4    -79.7818634 -0.303527E-03  0.465E-02    0.58       1.0  T
   5    -79.7818860 -0.226802E-04  0.205E-02    0.58       1.0  T
   6    -79.7818878 -0.172149E-05  0.869E-03    0.59       1.6  T
   7    -79.7818884 -0.677750E-06  0.439E-03    0.60       3.3  T
   8    -79.7818886 -0.130095E-06  0.170E-03    0.60       8.4  T
   9    -79.7818886 -0.163032E-07  0.679E-04    0.60      21.0  T
  10    -79.7818886 -0.115594E-07  0.272E-04    0.60      52.6  T
     SCC iter.                  ...        0 min,  0.083 sec
     gradient                   ...        0 min,  0.052 sec
 * total energy  :   -79.0495847 Eh     change       -0.1501571E+00 Eh
   gradient norm :     0.2776585 Eh/α   predicted    -0.1411566E+00 (  -5.99%)
   displ. norm   :     0.7813243 α      lambda       -0.1548249E+00
   maximum displ.:     0.3858624 α      in ANC's #69, #73, #72, ...

........................................................................
.............................. CYCLE    6 ..............................
........................................................................

 iter      E             dE          RMSdq      gap      omega  full diag
   1    -79.8922175 -0.798922E+02  0.624E-01    1.36       0.0  T
   2    -79.8962019 -0.398440E-02  0.267E-01    1.64       1.0  T
   3    -79.8963534 -0.151511E-03  0.158E-01    1.58       1.0  T
   4    -79.8964275 -0.740410E-04  0.314E-02    1.58       1.0  T
   5    -79.8964504 -0.229300E-04  0.972E-03    1.58       1.5  T
   6    -79.8964506 -0.190699E-06  0.347E-03    1.58       4.1  T
   7    -79.8964507 -0.131405E-06  0.137E-03    1.58      10.4  T
   8    -79.8964507 -0.114533E-07  0.601E-04    1.58      23.8  T
   9    -79.8964507 -0.179845E-08  0.258E-04    1.58      55.3  T
     SCC iter.                  ...        0 min,  0.124 sec
     gradient                   ...        0 min,  0.058 sec
 * total energy  :   -79.1779091 Eh     change       -0.1283245E+00 Eh
   gradient norm :     0.2238366 Eh/α   predicted    -0.1246702E+00 (  -2.85%)
   displ. norm   :     0.7087770 α      lambda       -0.1252559E+00
   maximum displ.:     0.3432549 α      in ANC's #69, #73, #37, ...

........................................................................
.............................. CYCLE    7 ..............................
........................................................................

 iter      E             dE          RMSdq      gap      omega  full diag
   1    -80.0262508 -0.800263E+02  0.442E-01    2.26       0.0  T
   2    -80.0276410 -0.139021E-02  0.251E-01    2.39       1.0  T
   3    -80.0276813 -0.402671E-04  0.118E-01    2.37       1.0  T
   4    -80.0277592 -0.779578E-04  0.188E-02    2.36       1.0  T
   5    -80.0277654 -0.618999E-05  0.884E-03    2.36       1.6  T
   6    -80.0277657 -0.249340E-06  0.402E-03    2.36       3.6  T
   7    -80.0277658 -0.138792E-06  0.163E-03    2.36       8.8  T
   8    -80.0277658 -0.298665E-07  0.713E-04    2.36      20.0  T
   9    -80.0277658 -0.124336E-08  0.396E-04    2.36      36.0  T
     SCC iter.                  ...        0 min,  0.127 sec
     gradient                   ...        0 min,  0.060 sec
 * total energy  :   -79.2833225 Eh     change       -0.1054134E+00 Eh
   gradient norm :     0.1779533 Eh/α   predicted    -0.9409007E-01 ( -10.74%)
   displ. norm   :     0.7504697 α      lambda       -0.1091938E+00
   maximum displ.:     0.3954630 α      in ANC's #69, #37, #72, ...

........................................................................
.............................. CYCLE    8 ..............................
........................................................................

 iter      E             dE          RMSdq      gap      omega  full diag
   1    -80.1588895 -0.801589E+02  0.425E-01    2.88       0.0  T
   2    -80.1594415 -0.552002E-03  0.244E-01    2.94       1.0  T
   3    -80.1594297  0.117659E-04  0.786E-02    2.94       1.0  T
   4    -80.1594888 -0.590462E-04  0.147E-02    2.94       1.0  T
   5    -80.1594917 -0.296021E-05  0.815E-03    2.93       1.8  T
   6    -80.1594919 -0.105790E-06  0.325E-03    2.93       4.4  T
   7    -80.1594920 -0.161850E-06  0.102E-03    2.93      13.9  T
   8    -80.1594920 -0.866267E-08  0.549E-04    2.93      26.0  T
   9    -80.1594920 -0.173574E-08  0.310E-04    2.93      46.1  T
     SCC iter.                  ...        0 min,  0.205 sec
     gradient                   ...        0 min,  0.106 sec
 * total energy  :   -79.3777000 Eh     change       -0.9437749E-01 Eh
   gradient norm :     0.1612161 Eh/α   predicted    -0.8534609E-01 (  -9.57%)
   displ. norm   :     0.7714153 α      lambda       -0.9535050E-01
   maximum displ.:     0.4305744 α      in ANC's #69, #37, #104, ...

........................................................................
.............................. CYCLE    9 ..............................
........................................................................

 iter      E             dE          RMSdq      gap      omega  full diag
   1    -80.2737837 -0.802738E+02  0.422E-01    3.17       0.0  T
   2    -80.2740816 -0.297885E-03  0.240E-01    3.18       1.0  T
   3    -80.2740864 -0.474330E-05  0.552E-02    3.18       1.0  T
   4    -80.2741209 -0.345442E-04  0.138E-02    3.18       1.0  T
   5    -80.2741217 -0.818911E-06  0.835E-03    3.18       1.7  T
   6    -80.2741220 -0.265613E-06  0.251E-03    3.18       5.7  T
   7    -80.2741221 -0.106513E-06  0.993E-04    3.18      14.4  T
   8    -80.2741221 -0.587885E-08  0.606E-04    3.18      23.6  T
     SCC iter.                  ...        0 min,  0.081 sec
     gradient                   ...        0 min,  0.057 sec
 * total energy  :   -79.4563600 Eh     change       -0.7865996E-01 Eh
   gradient norm :     0.1290370 Eh/α   predicted    -0.7604595E-01 (  -3.32%)
   displ. norm   :     0.7257723 α      lambda       -0.6431192E-01
   maximum displ.:     0.3974701 α      in ANC's #69, #37, #93, ...

........................................................................
.............................. CYCLE   10 ..............................
........................................................................

 iter      E             dE          RMSdq      gap      omega  full diag
   1    -80.3418838 -0.803419E+02  0.405E-01    3.16       0.0  T
   2    -80.3421957 -0.311876E-03  0.229E-01    3.15       1.0  T
   3    -80.3422066 -0.109302E-04  0.520E-02    3.14       1.0  T
   4    -80.3422287 -0.220504E-04  0.119E-02    3.14       1.2  T
   5    -80.3422292 -0.554984E-06  0.710E-03    3.14       2.0  T
   6    -80.3422295 -0.252707E-06  0.320E-03    3.14       4.5  T
   7    -80.3422296 -0.120248E-06  0.908E-04    3.14      15.7  T
   8    -80.3422296 -0.422486E-08  0.554E-04    3.14      25.8  T
     SCC iter.                  ...        0 min,  0.108 sec
     gradient                   ...        0 min,  0.085 sec
 * total energy  :   -79.5072694 Eh     change       -0.5090942E-01 Eh
   gradient norm :     0.1103179 Eh/α   predicted    -0.4909397E-01 (  -3.57%)
   displ. norm   :     0.6817768 α      lambda       -0.4365169E-01
   maximum displ.:     0.3949960 α      in ANC's #37, #93, #69, ...

........................................................................
.............................. CYCLE   11 ..............................
........................................................................

 iter      E             dE          RMSdq      gap      omega  full diag
   1    -80.3834366 -0.803834E+02  0.332E-01    3.13       0.0  T
   2    -80.3836363 -0.199686E-03  0.191E-01    3.12       1.0  T
   3    -80.3836414 -0.505403E-05  0.367E-02    3.11       1.0  T
   4    -80.3836520 -0.106002E-04  0.832E-03    3.11       1.7  T
   5    -80.3836527 -0.711031E-06  0.489E-03    3.11       2.9  T
   6    -80.3836528 -0.136965E-06  0.263E-03    3.11       5.4  T
   7    -80.3836529 -0.617154E-07  0.649E-04    3.11      22.0  T
   8    -80.3836529 -0.349222E-08  0.393E-04    3.11      36.4  T
     SCC iter.                  ...        0 min,  0.160 sec
     gradient                   ...        0 min,  0.057 sec
 * total energy  :   -79.5436367 Eh     change       -0.3636729E-01 Eh
   gradient norm :     0.0952482 Eh/α   predicted    -0.3197093E-01 ( -12.09%)
   displ. norm   :     0.7018902 α      lambda       -0.3773888E-01
   maximum displ.:     0.4020782 α      in ANC's #37, #93, #44, ...

........................................................................
.............................. CYCLE   12 ..............................
........................................................................

 iter      E             dE          RMSdq      gap      omega  full diag
   1    -80.4136410 -0.804136E+02  0.310E-01    3.12       0.0  T
   2    -80.4137369 -0.958956E-04  0.181E-01    3.10       1.0  T
   3    -80.4137405 -0.367967E-05  0.208E-02    3.09       1.0  T
   4    -80.4137463 -0.579011E-05  0.710E-03    3.10       2.0  T
   5    -80.4137470 -0.677479E-06  0.408E-03    3.10       3.5  T
   6    -80.4137471 -0.898533E-07  0.206E-03    3.10       6.9  T
   7    -80.4137471 -0.322373E-07  0.559E-04    3.10      25.6  T
   8    -80.4137471 -0.475097E-08  0.287E-04    3.10      49.8  T
     SCC iter.                  ...        0 min,  0.107 sec
     gradient                   ...        0 min,  0.100 sec
 * total energy  :   -79.5749437 Eh     change       -0.3130703E-01 Eh
   gradient norm :     0.0669942 Eh/α   predicted    -0.2816548E-01 ( -10.03%)
   displ. norm   :     0.7173505 α      lambda       -0.2878787E-01
   maximum displ.:     0.3690851 α      in ANC's #37, #93, #44, ...

........................................................................
.............................. CYCLE   13 ..............................
........................................................................

 iter      E             dE          RMSdq      gap      omega  full diag
   1    -80.4354337 -0.804354E+02  0.296E-01    3.12       0.0  T
   2    -80.4355106 -0.769139E-04  0.170E-01    3.11       1.0  T
   3    -80.4355131 -0.251103E-05  0.202E-02    3.11       1.0  T
   4    -80.4355183 -0.519536E-05  0.700E-03    3.11       2.0  T
   5    -80.4355191 -0.803009E-06  0.398E-03    3.11       3.6  T
   6    -80.4355192 -0.715606E-07  0.142E-03    3.11      10.0  T
   7    -80.4355192 -0.163586E-07  0.497E-04    3.11      28.8  T
   8    -80.4355192 -0.257603E-08  0.279E-04    3.11      51.3  T
     SCC iter.                  ...        0 min,  0.175 sec
     gradient                   ...        0 min,  0.057 sec
 * total energy  :   -79.5982072 Eh     change       -0.2326347E-01 Eh
   gradient norm :     0.0512382 Eh/α   predicted    -0.2180100E-01 (  -6.29%)
   displ. norm   :     0.7141876 α      lambda       -0.2018427E-01
   maximum displ.:     0.3618895 α      in ANC's #37, #44, #93, ...

........................................................................
.............................. CYCLE   14 ..............................
........................................................................

 iter      E             dE          RMSdq      gap      omega  full diag
   1    -80.4430551 -0.804431E+02  0.253E-01    3.10       0.0  T
   2    -80.4432746 -0.219480E-03  0.140E-01    3.11       1.0  T
   3    -80.4432736  0.971456E-06  0.406E-02    3.11       1.0  T
   4    -80.4432809 -0.731425E-05  0.102E-02    3.11       1.4  T
   5    -80.4432840 -0.303237E-05  0.358E-03    3.11       4.0  T
   6    -80.4432840 -0.765933E-07  0.208E-03    3.11       6.9  T
   7    -80.4432841 -0.224019E-07  0.463E-04    3.11      30.8  T
   8    -80.4432841 -0.309423E-08  0.210E-04    3.11      68.0  T
     SCC iter.                  ...        0 min,  0.084 sec
     gradient                   ...        0 min,  0.097 sec
 * total energy  :   -79.6128994 Eh     change       -0.1469215E-01 Eh
   gradient norm :     0.0589215 Eh/α   predicted    -0.1523979E-01 (   3.73%)
   displ. norm   :     0.7679689 α      lambda       -0.1894745E-01
   maximum displ.:     0.3643367 α      in ANC's #37, #44, #93, ...

........................................................................
.............................. CYCLE   15 ..............................
........................................................................

 iter      E             dE          RMSdq      gap      omega  full diag
   1    -80.4481838 -0.804482E+02  0.253E-01    3.13       0.0  T
   2    -80.4484058 -0.221955E-03  0.139E-01    3.14       1.0  T
   3    -80.4484083 -0.247405E-05  0.403E-02    3.14       1.0  T
   4    -80.4484122 -0.396498E-05  0.953E-03    3.14       1.5  T
   5    -80.4484152 -0.294150E-05  0.370E-03    3.14       3.9  T
   6    -80.4484152 -0.579658E-07  0.180E-03    3.14       7.9  T
   7    -80.4484153 -0.185495E-07  0.597E-04    3.14      23.9  T
   8    -80.4484153 -0.438534E-08  0.314E-04    3.14      45.4  T
     SCC iter.                  ...        0 min,  0.165 sec
     gradient                   ...        0 min,  0.060 sec
 * total energy  :   -79.6224151 Eh     change       -0.9515703E-02 Eh
   gradient norm :     0.0736116 Eh/α   predicted    -0.1506111E-01 (  58.28%)
   displ. norm   :     0.5281028 α      lambda       -0.1239653E-01
   maximum displ.:     0.2807753 α      in ANC's #44, #37, #31, ...

........................................................................
.............................. CYCLE   16 ..............................
........................................................................

 iter      E             dE          RMSdq      gap      omega  full diag
   1    -80.4567207 -0.804567E+02  0.138E-01    3.19       0.0  T
   2    -80.4567932 -0.724691E-04  0.791E-02    3.20       1.0  T
   3    -80.4567937 -0.576370E-06  0.255E-02    3.20       1.0  T
   4    -80.4567996 -0.589615E-05  0.721E-03    3.20       2.0  T
   5    -80.4568005 -0.841479E-06  0.339E-03    3.20       4.2  T
   6    -80.4568006 -0.131447E-06  0.165E-03    3.20       8.7  T
   7    -80.4568006 -0.154624E-07  0.650E-04    3.20      22.0  T
   8    -80.4568006 -0.298208E-08  0.310E-04    3.20      46.1  T
     SCC iter.                  ...        0 min,  0.169 sec
     gradient                   ...        0 min,  0.072 sec
 * total energy  :   -79.6315283 Eh     change       -0.9113210E-02 Eh
   gradient norm :     0.0561361 Eh/α   predicted    -0.7926907E-02 ( -13.02%)
   displ. norm   :     0.5746950 α      lambda       -0.1396522E-01
   maximum displ.:     0.3000157 α      in ANC's #44, #37, #51, ...

........................................................................
.............................. CYCLE   17 ..............................
........................................................................

 iter      E             dE          RMSdq      gap      omega  full diag
   1    -80.4650090 -0.804650E+02  0.184E-01    3.18       0.0  T
   2    -80.4652599 -0.250882E-03  0.106E-01    3.20       1.0  T
   3    -80.4652656 -0.575965E-05  0.479E-02    3.20       1.0  T
   4    -80.4652788 -0.131677E-04  0.142E-02    3.21       1.0  T
   5    -80.4652817 -0.292922E-05  0.577E-03    3.21       2.5  T
   6    -80.4652822 -0.411278E-06  0.320E-03    3.21       4.5  T
   7    -80.4652822 -0.643912E-07  0.100E-03    3.21      14.3  T
   8    -80.4652822 -0.428606E-08  0.375E-04    3.21      38.1  T
   9    -80.4652822 -0.171674E-08  0.160E-04    3.21      89.0  T
     SCC iter.                  ...        0 min,  0.115 sec
     gradient                   ...        0 min,  0.057 sec
 * total energy  :   -79.6405408 Eh     change       -0.9012522E-02 Eh
   gradient norm :     0.0706822 Eh/α   predicted    -0.9288795E-02 (   3.07%)
   displ. norm   :     0.6198147 α      lambda       -0.1205524E-01
   maximum displ.:     0.3191608 α      in ANC's #44, #31, #37, ...

........................................................................
.............................. CYCLE   18 ..............................
........................................................................

 iter      E             dE          RMSdq      gap      omega  full diag
   1    -80.4638640 -0.804639E+02  0.166E-01    3.22       0.0  T
   2    -80.4639498 -0.857987E-04  0.954E-02    3.22       1.0  T
   3    -80.4639504 -0.577941E-06  0.307E-02    3.22       1.0  T
   4    -80.4639582 -0.781315E-05  0.831E-03    3.22       1.7  T
   5    -80.4639594 -0.123190E-05  0.443E-03    3.22       3.2  T
   6    -80.4639596 -0.127232E-06  0.217E-03    3.22       6.6  T
   7    -80.4639596 -0.333984E-07  0.647E-04    3.22      22.1  T
   8    -80.4639596 -0.535073E-08  0.331E-04    3.22      43.1  T
     SCC iter.                  ...        0 min,  0.089 sec
     gradient                   ...        0 min,  0.099 sec
 * total energy  :   -79.6493193 Eh     change       -0.8778520E-02 Eh
   gradient norm :     0.0768840 Eh/α   predicted    -0.8343246E-02 (  -4.96%)
   displ. norm   :     0.6278418 α      lambda       -0.1505131E-01
   maximum displ.:     0.2429070 α      in ANC's #31, #44, #69, ...

........................................................................
.............................. CYCLE   19 ..............................
........................................................................

 iter      E             dE          RMSdq      gap      omega  full diag
   1    -80.4713417 -0.804713E+02  0.237E-01    3.27       0.0  T
   2    -80.4715758 -0.234039E-03  0.142E-01    3.28       1.0  T
   3    -80.4715719  0.392859E-05  0.481E-02    3.28       1.0  T
   4    -80.4715975 -0.256913E-04  0.120E-02    3.28       1.2  T
   5    -80.4716001 -0.252168E-05  0.595E-03    3.28       2.4  T
   6    -80.4716004 -0.377785E-06  0.297E-03    3.28       4.8  T
   7    -80.4716005 -0.549267E-07  0.105E-03    3.28      13.6  T
   8    -80.4716005 -0.893007E-08  0.516E-04    3.28      27.7  T
   9    -80.4716005 -0.207007E-08  0.217E-04    3.28      66.0  T
     SCC iter.                  ...        0 min,  0.077 sec
     gradient                   ...        0 min,  0.061 sec
 * total energy  :   -79.6570240 Eh     change       -0.7704736E-02 Eh
   gradient norm :     0.0658362 Eh/α   predicted    -0.1049215E-01 (  36.18%)
   displ. norm   :     0.4621254 α      lambda       -0.8852190E-02
   maximum displ.:     0.1893308 α      in ANC's #44, #51, #52, ...

........................................................................
.............................. CYCLE   20 ..............................
........................................................................

 iter      E             dE          RMSdq      gap      omega  full diag
   1    -80.4695038 -0.804695E+02  0.154E-01    3.24       0.0  T
   2    -80.4697393 -0.235419E-03  0.874E-02    3.29       1.0  T
   3    -80.4697475 -0.823786E-05  0.414E-02    3.30       1.0  T
   4    -80.4697511 -0.363023E-05  0.109E-02    3.30       1.3  T
   5    -80.4697531 -0.200570E-05  0.412E-03    3.30       3.5  T
   6    -80.4697534 -0.221827E-06  0.214E-03    3.30       6.7  T
   7    -80.4697534 -0.302381E-07  0.776E-04    3.30      18.4  T
   8    -80.4697534 -0.472892E-08  0.414E-04    3.30      34.5  T
     SCC iter.                  ...        0 min,  0.073 sec
     gradient                   ...        0 min,  0.106 sec
 * total energy  :   -79.6615969 Eh     change       -0.4572901E-02 Eh
   gradient norm :     0.0589923 Eh/α   predicted    -0.5371342E-02 (  17.46%)
   displ. norm   :     0.3895093 α      lambda       -0.6546597E-02
   maximum displ.:     0.1883519 α      in ANC's #31, #51, #49, ...
 * RMSD in coord.:     1.3010352 α      energy gain  -0.1311270E+01 Eh

generating ANC from exact Hessian ...
Using Lindh-Hessian (1995)
 Shifting diagonal of input Hessian by    1.0346476002327775E-002
 Lowest  eigenvalues of input Hessian
    0.010000    0.010006    0.010103    0.000000    0.000000    0.000000
    0.000000    0.000000    0.000000    0.010393    0.010545    0.010575
    0.010617    0.010708    0.010810    0.010877    0.011010    0.011157
 Highest eigenvalues
    1.879811    1.911599    1.943124    2.063167    2.175069    2.518739


........................................................................
.............................. CYCLE   21 ..............................
........................................................................

 iter      E             dE          RMSdq      gap      omega  full diag
   1    -80.4608370 -0.804608E+02  0.149E-01    3.24       0.0  T
   2    -80.4609510 -0.114006E-03  0.878E-02    3.26       1.0  T
   3    -80.4609482  0.284685E-05  0.370E-02    3.25       1.0  T
   4    -80.4609628 -0.146655E-04  0.712E-03    3.26       2.0  T
   5    -80.4609635 -0.682349E-06  0.363E-03    3.26       3.9  T
   6    -80.4609637 -0.150043E-06  0.215E-03    3.26       6.7  T
   7    -80.4609637 -0.204483E-07  0.531E-04    3.26      26.9  T
   8    -80.4609637 -0.292229E-08  0.264E-04    3.26      54.1  T
     SCC iter.                  ...        0 min,  0.071 sec
     gradient                   ...        0 min,  0.058 sec
 * total energy  :   -79.6642300 Eh     change       -0.2633019E-02 Eh
   gradient norm :     0.0639637 Eh/α   predicted     0.0000000E+00 (-100.00%)
   displ. norm   :     0.3818599 α      lambda       -0.9807153E-02
   maximum displ.:     0.1753578 α      in ANC's #29, #15, #34, ...

........................................................................
.............................. CYCLE   22 ..............................
........................................................................

 iter      E             dE          RMSdq      gap      omega  full diag
   1    -80.4775277 -0.804775E+02  0.160E-01    3.29       0.0  T
   2    -80.4776507 -0.123013E-03  0.887E-02    3.28       1.0  T
   3    -80.4776493  0.141375E-05  0.342E-02    3.28       1.0  T
   4    -80.4776576 -0.828124E-05  0.812E-03    3.28       1.8  T
   5    -80.4776591 -0.151092E-05  0.260E-03    3.28       5.5  T
   6    -80.4776592 -0.114853E-06  0.145E-03    3.28       9.9  T
   7    -80.4776592 -0.145995E-07  0.467E-04    3.28      30.6  T
   8    -80.4776592 -0.106049E-08  0.234E-04    3.28      61.1  T
     SCC iter.                  ...        0 min,  0.194 sec
     gradient                   ...        0 min,  0.098 sec
 * total energy  :   -79.6717680 Eh     change       -0.7538025E-02 Eh
   gradient norm :     0.0276309 Eh/α   predicted    -0.5624937E-02 ( -25.38%)
   displ. norm   :     0.6020807 α      lambda       -0.7564029E-02
   maximum displ.:     0.3120281 α      in ANC's #29, #15, #34, ...

........................................................................
.............................. CYCLE   23 ..............................
........................................................................

 iter      E             dE          RMSdq      gap      omega  full diag
   1    -80.4866587 -0.804867E+02  0.160E-01    3.28       0.0  T
   2    -80.4867962 -0.137481E-03  0.888E-02    3.28       1.0  T
   3    -80.4867965 -0.373700E-06  0.357E-02    3.28       1.0  T
   4    -80.4868036 -0.706479E-05  0.817E-03    3.28       1.7  T
   5    -80.4868051 -0.147096E-05  0.281E-03    3.28       5.1  T
   6    -80.4868052 -0.118196E-06  0.160E-03    3.28       8.9  T
   7    -80.4868052 -0.188935E-07  0.626E-04    3.28      22.8  T
   8    -80.4868052 -0.266959E-08  0.315E-04    3.28      45.3  T
     SCC iter.                  ...        0 min,  0.066 sec
     gradient                   ...        0 min,  0.058 sec
 * total energy  :   -79.6774331 Eh     change       -0.5665143E-02 Eh
   gradient norm :     0.0265367 Eh/α   predicted    -0.5153000E-02 (  -9.04%)
   displ. norm   :     0.6460316 α      lambda       -0.4941292E-02
   maximum displ.:     0.3598331 α      in ANC's #15, #29, #14, ...

........................................................................
.............................. CYCLE   24 ..............................
........................................................................

 iter      E             dE          RMSdq      gap      omega  full diag
   1    -80.4879012 -0.804879E+02  0.129E-01    3.26       0.0  T
   2    -80.4879386 -0.374466E-04  0.741E-02    3.26       1.0  T
   3    -80.4879380  0.598753E-06  0.186E-02    3.26       1.0  T
   4    -80.4879412 -0.314215E-05  0.486E-03    3.26       2.9  T
   5    -80.4879417 -0.536792E-06  0.221E-03    3.26       6.5  T
   6    -80.4879418 -0.420936E-07  0.132E-03    3.26      10.8  T
   7    -80.4879418 -0.143718E-07  0.527E-04    3.26      27.1  T
   8    -80.4879418 -0.286933E-08  0.257E-04    3.26      55.6  T
     SCC iter.                  ...        0 min,  0.083 sec
     gradient                   ...        0 min,  0.059 sec
 * total energy  :   -79.6815973 Eh     change       -0.4164207E-02 Eh
   gradient norm :     0.0299235 Eh/α   predicted    -0.3501795E-02 ( -15.91%)
   displ. norm   :     0.7269901 α      lambda       -0.4996054E-02
   maximum displ.:     0.4393311 α      in ANC's #15, #29, #14, ...

........................................................................
.............................. CYCLE   25 ..............................
........................................................................

 iter      E             dE          RMSdq      gap      omega  full diag
   1    -80.4897348 -0.804897E+02  0.125E-01    3.24       0.0  T
   2    -80.4897560 -0.212262E-04  0.728E-02    3.25       1.0  T
   3    -80.4897561 -0.711040E-07  0.126E-02    3.25       1.1  T
   4    -80.4897581 -0.193429E-05  0.470E-03    3.25       3.0  T
   5    -80.4897586 -0.511965E-06  0.241E-03    3.25       5.9  T
   6    -80.4897586 -0.385961E-07  0.130E-03    3.25      11.0  T
   7    -80.4897586 -0.139805E-07  0.535E-04    3.25      26.7  T
   8    -80.4897586 -0.355446E-08  0.271E-04    3.25      52.7  T
     SCC iter.                  ...        0 min,  0.086 sec
     gradient                   ...        0 min,  0.102 sec
 * total energy  :   -79.6858131 Eh     change       -0.4215789E-02 Eh
   gradient norm :     0.0202102 Eh/α   predicted    -0.3818277E-02 (  -9.43%)
   displ. norm   :     0.7133916 α      lambda       -0.4152486E-02
   maximum displ.:     0.4504676 α      in ANC's #15, #14, #29, ...

........................................................................
.............................. CYCLE   26 ..............................
........................................................................

 iter      E             dE          RMSdq      gap      omega  full diag
   1    -80.4936111 -0.804936E+02  0.112E-01    3.22       0.0  T
   2    -80.4936306 -0.195659E-04  0.657E-02    3.23       1.0  T
   3    -80.4936299  0.761859E-06  0.132E-02    3.24       1.1  T
   4    -80.4936324 -0.257699E-05  0.390E-03    3.24       3.7  T
   5    -80.4936328 -0.315048E-06  0.205E-03    3.24       7.0  T
   6    -80.4936328 -0.304616E-07  0.115E-03    3.24      12.4  T
   7    -80.4936328 -0.116632E-07  0.420E-04    3.24      34.0  T
   8    -80.4936328 -0.159378E-08  0.220E-04    3.24      64.8  T
     SCC iter.                  ...        0 min,  0.153 sec
     gradient                   ...        0 min,  0.056 sec
 * total energy  :   -79.6892703 Eh     change       -0.3457187E-02 Eh
   gradient norm :     0.0189564 Eh/α   predicted    -0.3132903E-02 (  -9.38%)
   displ. norm   :     0.7364515 α      lambda       -0.3692779E-02
   maximum displ.:     0.4674612 α      in ANC's #15, #14, #29, ...

........................................................................
.............................. CYCLE   27 ..............................
........................................................................

 iter      E             dE          RMSdq      gap      omega  full diag
   1    -80.4959866 -0.804960E+02  0.116E-01    3.21       0.0  T
   2    -80.4959978 -0.111960E-04  0.690E-02    3.21       1.0  T
   3    -80.4959967  0.114182E-05  0.110E-02    3.21       1.3  T
   4    -80.4959994 -0.271869E-05  0.302E-03    3.21       4.7  T
   5    -80.4959995 -0.124745E-06  0.166E-03    3.21       8.6  T
   6    -80.4959995 -0.145451E-07  0.893E-04    3.21      16.0  T
   7    -80.4959995 -0.597367E-08  0.276E-04    3.21      51.7  T
     SCC iter.                  ...        0 min,  0.064 sec
     gradient                   ...        0 min,  0.076 sec
 * total energy  :   -79.6922489 Eh     change       -0.2978559E-02 Eh
   gradient norm :     0.0228524 Eh/α   predicted    -0.2847800E-02 (  -4.39%)
   displ. norm   :     0.7152542 α      lambda       -0.3493871E-02
   maximum displ.:     0.4641320 α      in ANC's #15, #14, #29, ...

........................................................................
.............................. CYCLE   28 ..............................
........................................................................

 iter      E             dE          RMSdq      gap      omega  full diag
   1    -80.5014742 -0.805015E+02  0.113E-01    3.19       0.0  T
   2    -80.5014877 -0.134839E-04  0.672E-02    3.19       1.0  T
   3    -80.5014864  0.125369E-05  0.119E-02    3.19       1.2  T
   4    -80.5014893 -0.286003E-05  0.362E-03    3.19       3.9  T
   5    -80.5014895 -0.288508E-06  0.169E-03    3.19       8.5  T
   6    -80.5014896 -0.122083E-07  0.933E-04    3.19      15.3  T
   7    -80.5014896 -0.583961E-08  0.224E-04    3.19      63.7  T
     SCC iter.                  ...        0 min,  0.059 sec
     gradient                   ...        0 min,  0.057 sec
 * total energy  :   -79.6950889 Eh     change       -0.2840020E-02 Eh
   gradient norm :     0.0235600 Eh/α   predicted    -0.2640661E-02 (  -7.02%)
   displ. norm   :     0.7065288 α      lambda       -0.2928715E-02
   maximum displ.:     0.4548222 α      in ANC's #15, #14, #23, ...

........................................................................
.............................. CYCLE   29 ..............................
........................................................................

 iter      E             dE          RMSdq      gap      omega  full diag
   1    -80.5050945 -0.805051E+02  0.111E-01    3.19       0.0  T
   2    -80.5051066 -0.121239E-04  0.662E-02    3.18       1.0  T
   3    -80.5051046  0.196364E-05  0.118E-02    3.18       1.2  T
   4    -80.5051084 -0.377541E-05  0.367E-03    3.18       3.9  T
   5    -80.5051086 -0.233535E-06  0.189E-03    3.18       7.6  T
   6    -80.5051087 -0.120437E-07  0.103E-03    3.18      13.8  T
   7    -80.5051087 -0.520984E-08  0.300E-04    3.18      47.6  T
   8    -80.5051087 -0.117898E-08  0.126E-04    3.18     113.1  T
     SCC iter.                  ...        0 min,  0.163 sec
     gradient                   ...        0 min,  0.087 sec
 * total energy  :   -79.6975076 Eh     change       -0.2418691E-02 Eh
   gradient norm :     0.0172480 Eh/α   predicted    -0.2195355E-02 (  -9.23%)
   displ. norm   :     0.7437462 α      lambda       -0.2433223E-02
   maximum displ.:     0.4981455 α      in ANC's #15, #14, #23, ...

........................................................................
.............................. CYCLE   30 ..............................
........................................................................

 iter      E             dE          RMSdq      gap      omega  full diag
   1    -80.5061875 -0.805062E+02  0.123E-01    3.17       0.0  T
   2    -80.5061966 -0.907088E-05  0.723E-02    3.17       1.0  T
   3    -80.5061954  0.115588E-05  0.107E-02    3.16       1.3  T
   4    -80.5061987 -0.328334E-05  0.369E-03    3.16       3.9  T
   5    -80.5061989 -0.151434E-06  0.199E-03    3.16       7.2  T
   6    -80.5061989 -0.165896E-07  0.109E-03    3.16      13.1  T
   7    -80.5061989 -0.622244E-08  0.409E-04    3.16      34.9  T
   8    -80.5061989 -0.973387E-09  0.172E-04    3.16      83.0  T
     SCC iter.                  ...        0 min,  0.159 sec
     gradient                   ...        0 min,  0.057 sec
 * total energy  :   -79.6991385 Eh     change       -0.1630879E-02 Eh
   gradient norm :     0.0207358 Eh/α   predicted    -0.1889593E-02 (  15.86%)
   displ. norm   :     0.6503576 α      lambda       -0.2267911E-02
   maximum displ.:     0.3798561 α      in ANC's #15, #14, #4, ...

........................................................................
.............................. CYCLE   31 ..............................
........................................................................

 iter      E             dE          RMSdq      gap      omega  full diag
   1    -80.5036342 -0.805036E+02  0.135E-01    3.17       0.0  T
   2    -80.5036546 -0.204032E-04  0.790E-02    3.16       1.0  T
   3    -80.5036559 -0.126359E-05  0.130E-02    3.16       1.1  T
   4    -80.5036581 -0.222478E-05  0.626E-03    3.16       2.3  T
   5    -80.5036586 -0.475573E-06  0.391E-03    3.16       3.7  T
   6    -80.5036586 -0.248404E-07  0.181E-03    3.16       7.9  T
   7    -80.5036586 -0.955684E-08  0.571E-04    3.16      25.0  T
   8    -80.5036586 -0.658582E-08  0.204E-04    3.16      69.9  T
     SCC iter.                  ...        0 min,  0.075 sec
     gradient                   ...        0 min,  0.059 sec
 * total energy  :   -79.7001451 Eh     change       -0.1006645E-02 Eh
   gradient norm :     0.0275341 Eh/α   predicted    -0.1613580E-02 (  60.29%)
   displ. norm   :     0.4044170 α      lambda       -0.1582643E-02
   maximum displ.:     0.2452803 α      in ANC's #15, #14, #4, ...

........................................................................
.............................. CYCLE   32 ..............................
........................................................................

 iter      E             dE          RMSdq      gap      omega  full diag
   1    -80.5114650 -0.805115E+02  0.879E-02    3.16       0.0  T
   2    -80.5114745 -0.949155E-05  0.516E-02    3.16       1.0  T
   3    -80.5114746 -0.857599E-07  0.918E-03    3.16       1.6  T
   4    -80.5114759 -0.126026E-05  0.360E-03    3.16       4.0  T
   5    -80.5114760 -0.165706E-06  0.219E-03    3.16       6.5  T
   6    -80.5114760 -0.776255E-08  0.118E-03    3.16      12.1  T
   7    -80.5114760 -0.918159E-08  0.362E-04    3.16      39.5  T
   8    -80.5114760 -0.845475E-09  0.131E-04    3.16     109.0  T
     SCC iter.                  ...        0 min,  0.083 sec
     gradient                   ...        0 min,  0.057 sec
 * total energy  :   -79.7010216 Eh     change       -0.8765337E-03 Eh
   gradient norm :     0.0133797 Eh/α   predicted    -0.9207452E-03 (   5.04%)
   displ. norm   :     0.5674937 α      lambda       -0.1429134E-02
   maximum displ.:     0.3298453 α      in ANC's #15, #14, #29, ...

........................................................................
.............................. CYCLE   33 ..............................
........................................................................

 iter      E             dE          RMSdq      gap      omega  full diag
   1    -80.5000685 -0.805001E+02  0.102E-01    3.13       0.0  T
   2    -80.5000914 -0.229025E-04  0.597E-02    3.13       1.0  T
   3    -80.5000924 -0.927084E-06  0.136E-02    3.14       1.0  T
   4    -80.5000941 -0.174456E-05  0.404E-03    3.14       3.5  T
   5    -80.5000942 -0.855670E-07  0.244E-03    3.14       5.8  T
   6    -80.5000942 -0.334215E-07  0.112E-03    3.13      12.7  T
   7    -80.5000942 -0.121488E-07  0.424E-04    3.13      33.7  T
   8    -80.5000942 -0.137976E-08  0.187E-04    3.13      76.3  T
     SCC iter.                  ...        0 min,  0.096 sec
     gradient                   ...        0 min,  0.057 sec
 * total energy  :   -79.7008414 Eh     change        0.1802173E-03 Eh
   gradient norm :     0.0231631 Eh/α   predicted    -0.9447025E-03 (-624.20%)
   displ. norm   :     0.2185790 α      lambda       -0.1977192E-02
   maximum displ.:     0.1096694 α      in ANC's #4, #29, #34, ...

........................................................................
.............................. CYCLE   34 ..............................
........................................................................

 iter      E             dE          RMSdq      gap      omega  full diag
   1    -80.5103534 -0.805104E+02  0.703E-02    3.15       0.0  T
   2    -80.5103715 -0.180220E-04  0.398E-02    3.14       1.0  T
   3    -80.5103720 -0.518769E-06  0.118E-02    3.14       1.2  T
   4    -80.5103723 -0.346178E-06  0.247E-03    3.14       5.8  T
   5    -80.5103724 -0.728716E-07  0.138E-03    3.14      10.4  T
   6    -80.5103724 -0.954935E-08  0.634E-04    3.14      22.5  T
   7    -80.5103724 -0.277711E-08  0.171E-04    3.14      83.7  T
     SCC iter.                  ...        0 min,  0.074 sec
     gradient                   ...        0 min,  0.060 sec
 * total energy  :   -79.7019972 Eh     change       -0.1155818E-02 Eh
   gradient norm :     0.0087847 Eh/α   predicted    -0.1035832E-02 ( -10.38%)
   displ. norm   :     0.3912753 α      lambda       -0.7479840E-03
   maximum displ.:     0.1770174 α      in ANC's #4, #15, #14, ...

........................................................................
.............................. CYCLE   35 ..............................
........................................................................

 iter      E             dE          RMSdq      gap      omega  full diag
   1    -80.5114407 -0.805114E+02  0.808E-02    3.15       0.0  T
   2    -80.5114470 -0.628986E-05  0.475E-02    3.15       1.0  T
   3    -80.5114471 -0.943468E-07  0.781E-03    3.14       1.8  T
   4    -80.5114484 -0.123595E-05  0.348E-03    3.14       4.1  T
   5    -80.5114485 -0.944110E-07  0.226E-03    3.14       6.3  T
   6    -80.5114485 -0.102936E-07  0.130E-03    3.14      11.0  T
   7    -80.5114485 -0.575682E-08  0.368E-04    3.14      38.8  T
   8    -80.5114485 -0.159547E-08  0.138E-04    3.14     103.4  T
     SCC iter.                  ...        0 min,  0.065 sec
     gradient                   ...        0 min,  0.058 sec
 * total energy  :   -79.7022927 Eh     change       -0.2955035E-03 Eh
   gradient norm :     0.0198778 Eh/α   predicted    -0.4312509E-03 (  45.94%)
   displ. norm   :     0.4264420 α      lambda       -0.1006070E-02
   maximum displ.:     0.2162248 α      in ANC's #4, #5, #15, ...

........................................................................
.............................. CYCLE   36 ..............................
........................................................................

 iter      E             dE          RMSdq      gap      omega  full diag
   1    -80.5147338 -0.805147E+02  0.102E-01    3.15       0.0  T
   2    -80.5147395 -0.578005E-05  0.594E-02    3.14       1.0  T
   3    -80.5147402 -0.644563E-06  0.723E-03    3.14       2.0  T
   4    -80.5147411 -0.892200E-06  0.371E-03    3.14       3.8  T
   5    -80.5147411 -0.774886E-07  0.246E-03    3.14       5.8  T
   6    -80.5147412 -0.859701E-08  0.141E-03    3.14      10.2  T
   7    -80.5147412 -0.101826E-07  0.350E-04    3.14      40.8  T
   8    -80.5147412 -0.117424E-08  0.147E-04    3.14      97.1  T
     SCC iter.                  ...        0 min,  0.167 sec
     gradient                   ...        0 min,  0.100 sec
 * total energy  :   -79.7028259 Eh     change       -0.5331788E-03 Eh
   gradient norm :     0.0204257 Eh/α   predicted    -0.5945152E-03 (  11.50%)
   displ. norm   :     0.4130740 α      lambda       -0.1114111E-02
   maximum displ.:     0.2372090 α      in ANC's #4, #5, #6, ...

........................................................................
.............................. CYCLE   37 ..............................
........................................................................

 iter      E             dE          RMSdq      gap      omega  full diag
   1    -80.5138068 -0.805138E+02  0.720E-02    3.12       0.0  T
   2    -80.5138169 -0.100779E-04  0.422E-02    3.13       1.0  T
   3    -80.5138176 -0.729031E-06  0.821E-03    3.13       1.7  T
   4    -80.5138180 -0.413356E-06  0.363E-03    3.13       3.9  T
   5    -80.5138182 -0.180510E-06  0.219E-03    3.13       6.5  T
   6    -80.5138182 -0.101981E-07  0.820E-04    3.13      17.4  T
   7    -80.5138182 -0.489833E-08  0.308E-04    3.13      46.4  T
     SCC iter.                  ...        0 min,  0.150 sec
     gradient                   ...        0 min,  0.109 sec
 * total energy  :   -79.7034266 Eh     change       -0.6006722E-03 Eh
   gradient norm :     0.0175648 Eh/α   predicted    -0.6521124E-03 (   8.56%)
   displ. norm   :     0.4691520 α      lambda       -0.1357440E-02
   maximum displ.:     0.2737179 α      in ANC's #4, #5, #6, ...

........................................................................
.............................. CYCLE   38 ..............................
........................................................................

 iter      E             dE          RMSdq      gap      omega  full diag
   1    -80.5174321 -0.805174E+02  0.105E-01    3.10       0.0  T
   2    -80.5174495 -0.174338E-04  0.605E-02    3.11       1.0  T
   3    -80.5174513 -0.174404E-05  0.110E-02    3.11       1.3  T
   4    -80.5174521 -0.778668E-06  0.488E-03    3.11       2.9  T
   5    -80.5174524 -0.298162E-06  0.291E-03    3.11       4.9  T
   6    -80.5174524 -0.209573E-07  0.130E-03    3.11      11.0  T
   7    -80.5174524 -0.876757E-08  0.503E-04    3.11      28.4  T
   8    -80.5174524 -0.286495E-08  0.164E-04    3.11      87.3  T
     SCC iter.                  ...        0 min,  0.167 sec
     gradient                   ...        0 min,  0.060 sec
 * total energy  :   -79.7035522 Eh     change       -0.1256468E-03 Eh
   gradient norm :     0.0307840 Eh/α   predicted    -0.8281094E-03 ( 559.08%)
   displ. norm   :     0.3464131 α      lambda       -0.1907808E-02
   maximum displ.:     0.1811005 α      in ANC's #4, #5, #6, ...

........................................................................
.............................. CYCLE   39 ..............................
........................................................................

 iter      E             dE          RMSdq      gap      omega  full diag
   1    -80.5053593 -0.805054E+02  0.963E-02    3.11       0.0  T
   2    -80.5053760 -0.166976E-04  0.563E-02    3.10       1.0  T
   3    -80.5053776 -0.159872E-05  0.103E-02    3.10       1.4  T
   4    -80.5053786 -0.916421E-06  0.430E-03    3.10       3.3  T
   5    -80.5053787 -0.171261E-06  0.267E-03    3.10       5.4  T
   6    -80.5053787 -0.203746E-07  0.154E-03    3.10       9.3  T
   7    -80.5053788 -0.786395E-08  0.398E-04    3.10      35.9  T
   8    -80.5053788 -0.254985E-08  0.129E-04    3.10     110.7  T
     SCC iter.                  ...        0 min,  0.163 sec
     gradient                   ...        0 min,  0.067 sec
 * total energy  :   -79.7044840 Eh     change       -0.9317083E-03 Eh
   gradient norm :     0.0203591 Eh/α   predicted    -0.1068374E-02 (  14.67%)
   displ. norm   :     0.3776941 α      lambda       -0.1898820E-02
   maximum displ.:     0.1900865 α      in ANC's #4, #5, #40, ...

........................................................................
.............................. CYCLE   40 ..............................
........................................................................

 iter      E             dE          RMSdq      gap      omega  full diag
   1    -80.5113507 -0.805114E+02  0.134E-01    3.12       0.0  T
   2    -80.5113758 -0.251601E-04  0.784E-02    3.11       1.0  T
   3    -80.5113786 -0.275136E-05  0.133E-02    3.10       1.1  T
   4    -80.5113803 -0.167083E-05  0.596E-03    3.10       2.4  T
   5    -80.5113807 -0.461656E-06  0.353E-03    3.10       4.1  T
   6    -80.5113808 -0.310241E-07  0.195E-03    3.11       7.3  T
   7    -80.5113808 -0.162655E-07  0.728E-04    3.11      19.6  T
   8    -80.5113808 -0.437667E-08  0.205E-04    3.11      69.7  T
     SCC iter.                  ...        0 min,  0.175 sec
     gradient                   ...        0 min,  0.067 sec
 * total energy  :   -79.7044412 Eh     change        0.4274410E-04 Eh
   gradient norm :     0.0348339 Eh/α   predicted    -0.1084847E-02 (*******%)
   displ. norm   :     0.2814102 α      lambda       -0.1790193E-02
   maximum displ.:     0.1690416 α      in ANC's #4, #5, #6, ...

........................................................................
.............................. CYCLE   41 ..............................
........................................................................

 iter      E             dE          RMSdq      gap      omega  full diag
   1    -80.5126042 -0.805126E+02  0.630E-02    3.10       0.0  T
   2    -80.5126114 -0.724158E-05  0.375E-02    3.10       1.0  T
   3    -80.5126122 -0.792928E-06  0.696E-03    3.10       2.1  T
   4    -80.5126127 -0.458174E-06  0.326E-03    3.10       4.4  T
   5    -80.5126129 -0.158941E-06  0.188E-03    3.10       7.6  T
   6    -80.5126129 -0.120838E-07  0.979E-04    3.10      14.6  T
   7    -80.5126129 -0.392146E-08  0.341E-04    3.10      41.9  T
     SCC iter.                  ...        0 min,  0.082 sec
     gradient                   ...        0 min,  0.052 sec
 * total energy  :   -79.7056320 Eh     change       -0.1190829E-02 Eh
   gradient norm :     0.0132289 Eh/α   predicted    -0.9659838E-03 ( -18.88%)
   displ. norm   :     0.4854369 α      lambda       -0.1039134E-02
   maximum displ.:     0.2974739 α      in ANC's #4, #5, #6, ...

........................................................................
.............................. CYCLE   42 ..............................
........................................................................

 iter      E             dE          RMSdq      gap      omega  full diag
   1    -80.5104397 -0.805104E+02  0.807E-02    3.08       0.0  T
   2    -80.5104456 -0.588525E-05  0.476E-02    3.08       1.0  T
   3    -80.5104457 -0.596789E-07  0.656E-03    3.08       2.2  T
   4    -80.5104465 -0.834427E-06  0.261E-03    3.08       5.5  T
   5    -80.5104466 -0.930079E-07  0.152E-03    3.08       9.4  T
   6    -80.5104466 -0.536241E-08  0.846E-04    3.08      16.9  T
   7    -80.5104466 -0.462792E-08  0.290E-04    3.08      49.2  T
     SCC iter.                  ...        0 min,  0.113 sec
     gradient                   ...        0 min,  0.060 sec
 * total energy  :   -79.7063573 Eh     change       -0.7253044E-03 Eh
   gradient norm :     0.0126215 Eh/α   predicted    -0.6420059E-03 ( -11.48%)
   displ. norm   :     0.5811645 α      lambda       -0.1017211E-02
   maximum displ.:     0.3443999 α      in ANC's #4, #5, #18, ...
 * RMSD in coord.:     1.2767912 α      energy gain  -0.4476040E-01 Eh

generating ANC from exact Hessian ...
Using Lindh-Hessian (1995)
 Shifting diagonal of input Hessian by    1.0355099361125176E-002
 Lowest  eigenvalues of input Hessian
    0.010000    0.010023    0.010195    0.000000    0.000000    0.000000
    0.000000    0.000000    0.000000    0.010492    0.010559    0.010609
    0.010754    0.010780    0.010901    0.010969    0.010991    0.011227
 Highest eigenvalues
    1.882823    1.924952    1.949169    2.074550    2.256621    2.385765


........................................................................
.............................. CYCLE   43 ..............................
........................................................................

 iter      E             dE          RMSdq      gap      omega  full diag
   1    -80.5101841 -0.805102E+02  0.825E-02    3.08       0.0  T
   2    -80.5101870 -0.293704E-05  0.492E-02    3.08       1.0  T
   3    -80.5101874 -0.408381E-06  0.490E-03    3.08       2.9  T
   4    -80.5101877 -0.209538E-06  0.263E-03    3.08       5.4  T
   5    -80.5101877 -0.401362E-07  0.137E-03    3.08      10.4  T
   6    -80.5101877 -0.125307E-07  0.424E-04    3.08      33.7  T
   7    -80.5101877 -0.281184E-08  0.180E-04    3.08      79.2  T
     SCC iter.                  ...        0 min,  0.059 sec
     gradient                   ...        0 min,  0.051 sec
 * total energy  :   -79.7072254 Eh     change       -0.8680170E-03 Eh
   gradient norm :     0.0153831 Eh/α   predicted     0.0000000E+00 (-100.00%)
   displ. norm   :     0.1809335 α      lambda       -0.7661050E-03
   maximum displ.:     0.1036042 α      in ANC's #9, #26, #22, ...

........................................................................
.............................. CYCLE   44 ..............................
........................................................................

 iter      E             dE          RMSdq      gap      omega  full diag
   1    -80.5145810 -0.805146E+02  0.556E-02    3.09       0.0  T
   2    -80.5145829 -0.191458E-05  0.330E-02    3.09       1.0  T
   3    -80.5145829  0.112609E-07  0.510E-03    3.09       2.8  T
   4    -80.5145833 -0.449385E-06  0.275E-03    3.09       5.2  T
   5    -80.5145833 -0.934226E-08  0.164E-03    3.09       8.7  T
   6    -80.5145833  0.140305E-08  0.422E-04    3.09      33.9  T
   7    -80.5145833 -0.403284E-08  0.153E-04    3.09      93.6  T
     SCC iter.                  ...        0 min,  0.152 sec
     gradient                   ...        0 min,  0.064 sec
 * total energy  :   -79.7078469 Eh     change       -0.6215502E-03 Eh
   gradient norm :     0.0065519 Eh/α   predicted    -0.3955994E-03 ( -36.35%)
   displ. norm   :     0.4765839 α      lambda       -0.1308865E-02
   maximum displ.:     0.2728879 α      in ANC's #9, #22, #26, ...

........................................................................
.............................. CYCLE   45 ..............................
........................................................................

 iter      E             dE          RMSdq      gap      omega  full diag
   1    -80.5182192 -0.805182E+02  0.121E-01    3.11       0.0  T
   2    -80.5182263 -0.706059E-05  0.719E-02    3.10       1.0  T
   3    -80.5182273 -0.997346E-06  0.102E-02    3.10       1.4  T
   4    -80.5182285 -0.117368E-05  0.663E-03    3.10       2.2  T
   5    -80.5182285 -0.434134E-07  0.378E-03    3.10       3.8  T
   6    -80.5182285  0.807145E-08  0.126E-03    3.10      11.4  T
   7    -80.5182285 -0.409275E-07  0.290E-04    3.10      49.3  T
   8    -80.5182285 -0.651269E-09  0.140E-04    3.10     102.1  T
     SCC iter.                  ...        0 min,  0.071 sec
     gradient                   ...        0 min,  0.104 sec
 * total energy  :   -79.7087524 Eh     change       -0.9055035E-03 Eh
   gradient norm :     0.0161397 Eh/α   predicted    -0.8030746E-03 ( -11.31%)
   displ. norm   :     0.4434122 α      lambda       -0.9287236E-03
   maximum displ.:     0.2757470 α      in ANC's #9, #26, #15, ...

........................................................................
.............................. CYCLE   46 ..............................
........................................................................

 iter      E             dE          RMSdq      gap      omega  full diag
   1    -80.5181081 -0.805181E+02  0.939E-02    3.11       0.0  T
   2    -80.5181120 -0.387776E-05  0.555E-02    3.11       1.0  T
   3    -80.5181128 -0.755034E-06  0.649E-03    3.11       2.2  T
   4    -80.5181130 -0.252627E-06  0.454E-03    3.11       3.1  T
   5    -80.5181130 -0.240136E-07  0.271E-03    3.11       5.3  T
   6    -80.5181131 -0.148797E-07  0.710E-04    3.11      20.1  T
   7    -80.5181131 -0.124930E-07  0.181E-04    3.11      78.9  T
     SCC iter.                  ...        0 min,  0.094 sec
     gradient                   ...        0 min,  0.080 sec
 * total energy  :   -79.7095675 Eh     change       -0.8151158E-03 Eh
   gradient norm :     0.0180677 Eh/α   predicted    -0.5556663E-03 ( -31.83%)
   displ. norm   :     0.6371167 α      lambda       -0.1533754E-02
   maximum displ.:     0.3896660 α      in ANC's #9, #26, #15, ...

........................................................................
.............................. CYCLE   47 ..............................
........................................................................

 iter      E             dE          RMSdq      gap      omega  full diag
   1    -80.5160537 -0.805161E+02  0.141E-01    3.12       0.0  T
   2    -80.5160623 -0.859752E-05  0.828E-02    3.11       1.0  T
   3    -80.5160633 -0.101253E-05  0.952E-03    3.11       1.5  T
   4    -80.5160646 -0.128029E-05  0.596E-03    3.11       2.4  T
   5    -80.5160647 -0.844646E-07  0.366E-03    3.11       3.9  T
   6    -80.5160647 -0.141844E-07  0.127E-03    3.11      11.2  T
   7    -80.5160647 -0.291823E-07  0.262E-04    3.11      54.5  T
   8    -80.5160648 -0.110801E-08  0.114E-04    3.11     124.8  T
     SCC iter.                  ...        0 min,  0.116 sec
     gradient                   ...        0 min,  0.100 sec
 * total energy  :   -79.7107779 Eh     change       -0.1210397E-02 Eh
   gradient norm :     0.0180935 Eh/α   predicted    -0.1078170E-02 ( -10.92%)
   displ. norm   :     0.6930051 α      lambda       -0.1557152E-02
   maximum displ.:     0.4095973 α      in ANC's #9, #22, #15, ...

........................................................................
.............................. CYCLE   48 ..............................
........................................................................

 iter      E             dE          RMSdq      gap      omega  full diag
   1    -80.5088144 -0.805088E+02  0.152E-01    3.13       0.0  T
   2    -80.5088214 -0.693285E-05  0.901E-02    3.13       1.0  T
   3    -80.5088221 -0.756008E-06  0.116E-02    3.12       1.2  T
   4    -80.5088243 -0.220353E-05  0.702E-03    3.12       2.0  T
   5    -80.5088244 -0.280107E-07  0.328E-03    3.12       4.4  T
   6    -80.5088244 -0.803369E-07  0.979E-04    3.12      14.6  T
   7    -80.5088245 -0.185123E-07  0.270E-04    3.12      52.9  T
     SCC iter.                  ...        0 min,  0.081 sec
     gradient                   ...        0 min,  0.054 sec
 * total energy  :   -79.7119057 Eh     change       -0.1127814E-02 Eh
   gradient norm :     0.0226608 Eh/α   predicted    -0.1152496E-02 (   2.19%)
   displ. norm   :     0.5034305 α      lambda       -0.2005335E-02
   maximum displ.:     0.2988206 α      in ANC's #9, #24, #5, ...

........................................................................
.............................. CYCLE   49 ..............................
........................................................................

 iter      E             dE          RMSdq      gap      omega  full diag
   1    -80.5174098 -0.805174E+02  0.120E-01    3.13       0.0  T
   2    -80.5174257 -0.159002E-04  0.709E-02    3.14       1.0  T
   3    -80.5174246  0.118005E-05  0.122E-02    3.14       1.2  T
   4    -80.5174277 -0.308882E-05  0.466E-03    3.14       3.1  T
   5    -80.5174280 -0.334518E-06  0.246E-03    3.14       5.8  T
   6    -80.5174280 -0.164582E-07  0.109E-03    3.14      13.1  T
   7    -80.5174280 -0.152720E-07  0.284E-04    3.14      50.3  T
   8    -80.5174280 -0.384745E-09  0.114E-04    3.14     125.2  T
     SCC iter.                  ...        0 min,  0.070 sec
     gradient                   ...        0 min,  0.101 sec
 * total energy  :   -79.7129599 Eh     change       -0.1054179E-02 Eh
   gradient norm :     0.0213744 Eh/α   predicted    -0.1256795E-02 (  19.22%)
   displ. norm   :     0.5305089 α      lambda       -0.1568544E-02
   maximum displ.:     0.3164409 α      in ANC's #9, #24, #22, ...

........................................................................
.............................. CYCLE   50 ..............................
........................................................................

 iter      E             dE          RMSdq      gap      omega  full diag
   1    -80.5146510 -0.805147E+02  0.131E-01    3.16       0.0  T
   2    -80.5146675 -0.165363E-04  0.780E-02    3.15       1.0  T
   3    -80.5146674  0.869878E-07  0.126E-02    3.15       1.1  T
   4    -80.5146692 -0.180138E-05  0.639E-03    3.15       2.2  T
   5    -80.5146696 -0.385658E-06  0.353E-03    3.15       4.0  T
   6    -80.5146696 -0.195229E-07  0.136E-03    3.15      10.5  T
[...]
          :  # electrons                       134          :
          :  max. iterations                   250          :
          :  Hamiltonian                  GFN2-xTB          :
          :  restarted?                      false          :
          :  GBSA solvation                   true          :
          :  PC potential                    false          :
          :  electronic temp.          300.0000000     K    :
          :  accuracy                    1.0000000          :
          :  -> integral cutoff          0.2500000E+02      :
          :  -> integral neglect         0.1000000E-07      :
          :  -> SCF convergence          0.1000000E-05 Eh   :
          :  -> wf. convergence          0.1000000E-03 e    :
          :  Broyden damping             0.4000000          :
          :  net charge                          2          :
          :  unpaired electrons                  0          :
          ...................................................

 iter      E             dE          RMSdq      gap      omega  full diag
   1    -80.5463556 -0.805464E+02  0.163E-04    3.59       0.0  T
   2    -80.5463556 -0.619025E-10  0.104E-04    3.59     136.8  T
   3    -80.5463556  0.240874E-10  0.617E-05    3.59     231.5  T

   *** convergence criteria satisfied after 3 iterations ***

         #    Occupation            Energy/Eh            Energy/eV
      -------------------------------------------------------------
         1        2.0000           -0.7767280             -21.1358
       ...           ...                  ...                  ...
        61        2.0000           -0.4541205             -12.3572
        62        2.0000           -0.4514612             -12.2849
        63        2.0000           -0.4464889             -12.1496
        64        2.0000           -0.4425579             -12.0426
        65        2.0000           -0.4367329             -11.8841
        66        2.0000           -0.4343855             -11.8202
        67        2.0000           -0.4272319             -11.6256 (HOMO)
        68                         -0.2952650              -8.0346 (LUMO)
        69                         -0.2678078              -7.2874
        70                         -0.2530275              -6.8852
        71                         -0.2095669              -5.7026
        72                         -0.1603974              -4.3646
       ...                                ...                  ...
       118                          1.0964254              29.8353
      -------------------------------------------------------------
                  HL-Gap            0.1319669 Eh            3.5910 eV
             Fermi-level           -0.3612485 Eh           -9.8301 eV

 SCC (total)                   0 d,  0 h,  0 min,  0.156 sec
 SCC setup                      ...        0 min,  0.008 sec (  4.857%)
 Dispersion                     ...        0 min,  0.009 sec (  5.747%)
 classical contributions        ...        0 min,  0.003 sec (  1.613%)
 integral evaluation            ...        0 min,  0.025 sec ( 15.803%)
 iterations                     ...        0 min,  0.050 sec ( 32.092%)
 molecular gradient             ...        0 min,  0.061 sec ( 39.198%)
 printout                       ...        0 min,  0.001 sec (  0.649%)

         :::::::::::::::::::::::::::::::::::::::::::::::::::::
         ::                     SUMMARY                     ::
         :::::::::::::::::::::::::::::::::::::::::::::::::::::
         :: total energy             -79.733790505387 Eh    ::
         :: total w/o Gsasa/hb       -79.671184798003 Eh    ::
         :: gradient norm              0.000573030862 Eh/a0 ::
         :: HOMO-LUMO gap              3.591002145713 eV    ::
         ::.................................................::
         :: SCC energy               -80.546126186248 Eh    ::
         :: -> isotropic ES            0.558711129444 Eh    ::
         :: -> anisotropic ES         -0.031773646719 Eh    ::
         :: -> anisotropic XC          0.013763305176 Eh    ::
         :: -> dispersion             -0.040057285286 Eh    ::
         :: -> Gsolv                  -0.336461016250 Eh    ::
         ::    -> Gelec               -0.273855308866 Eh    ::
         ::    -> Gsasa                0.001335180885 Eh    ::
         ::    -> Ghb                 -0.065021647967 Eh    ::
         ::    -> Gshift               0.001080759698 Eh    ::
         :: repulsion energy           0.812335680860 Eh    ::
         :: add. restraining           0.000000000000 Eh    ::
         :: total charge               2.000000000000 e     ::
         :::::::::::::::::::::::::::::::::::::::::::::::::::::

           -------------------------------------------------
          |                Property Printout                |
           -------------------------------------------------

    * Orbital Energies and Occupations

         #    Occupation            Energy/Eh            Energy/eV
      -------------------------------------------------------------
         1        2.0000           -0.7767280             -21.1358
       ...           ...                  ...                  ...
        55        2.0000           -0.4609947             -12.5443
        56        2.0000           -0.4598638             -12.5135
        57        2.0000           -0.4589266             -12.4880
        58        2.0000           -0.4583933             -12.4735
        59        2.0000           -0.4553071             -12.3895
        60        2.0000           -0.4547526             -12.3744
        61        2.0000           -0.4541205             -12.3572
        62        2.0000           -0.4514612             -12.2849
        63        2.0000           -0.4464889             -12.1496
        64        2.0000           -0.4425579             -12.0426
        65        2.0000           -0.4367329             -11.8841
        66        2.0000           -0.4343855             -11.8202
        67        2.0000           -0.4272319             -11.6256 (HOMO)
        68                         -0.2952650              -8.0346 (LUMO)
        69                         -0.2678078              -7.2874
        70                         -0.2530275              -6.8852
        71                         -0.2095669              -5.7026
        72                         -0.1603974              -4.3646
        73                         -0.1120693              -3.0496
        74                         -0.0145541              -0.3960
        75                         -0.0089619              -0.2439
        76                          0.0374865               1.0201
        77                          0.0425295               1.1573
        78                          0.0440260               1.1980
       ...                                ...                  ...
       118                          1.0964254              29.8353
      -------------------------------------------------------------
                  HL-Gap            0.1319669 Eh            3.5910 eV
             Fermi-level           -0.3612485 Eh           -9.8301 eV

     #   Z          covCN         q      C6AA      α(0)
     1   6 C        2.973    -0.008    28.208     8.712
     2   6 C        2.919    -0.028    28.702     8.785
     3   6 C        2.924    -0.017    28.438     8.745
     4   6 C        2.973    -0.015    28.378     8.738
     5   6 C        2.920    -0.021    28.533     8.760
     6   6 C        2.921    -0.027    28.664     8.780
     7   1 H        0.926     0.077     2.005     2.214
     8   1 H        0.926     0.063     2.163     2.300
     9   1 H        0.926     0.077     2.011     2.218
    10   1 H        0.926     0.090     1.880     2.144
    11   6 C        2.709     0.360    20.895     7.482
    12   8 O        0.857    -0.413    21.935     6.279
    13   8 O        1.704    -0.214    17.550     5.656
    14   6 C        3.685     0.050    19.923     6.390
    15   6 C        3.751    -0.139    23.235     6.874
    16   1 H        0.924     0.060     2.197     2.318
    17   1 H        0.924     0.101     1.774     2.083
    18   1 H        0.925     0.062     2.172     2.305
    19   1 H        0.925     0.057     2.239     2.340
    20   1 H        0.925     0.083     1.946     2.182
    21   6 C        2.721     0.358    20.918     7.487
    22   8 O        0.856    -0.492    23.615     6.515
    23   8 O        1.704    -0.266    18.404     5.792
    24   6 C        3.695     0.069    19.583     6.331
    25   6 C        3.750    -0.126    22.986     6.837
    26   1 H        0.924     0.080     1.976     2.198
    27   1 H        0.924     0.056     2.244     2.342
    28   1 H        0.925     0.065     2.143     2.289
    29   1 H        0.925     0.068     2.109     2.271
    30   1 H        0.925     0.052     2.295     2.369
    31  48 Cd       4.141     0.458   190.576    26.498
    32   8 O        2.289    -0.560    24.169     6.640
    33   1 H        0.805     0.402     0.481     1.090
    34   1 H        0.805     0.400     0.484     1.093
    35   8 O        2.310    -0.539    23.687     6.573
    36   1 H        0.805     0.402     0.481     1.090
    37   1 H        0.810     0.386     0.511     1.122
    38   8 O        2.288    -0.563    24.228     6.648
    39   1 H        0.805     0.403     0.478     1.086
    40   1 H        0.805     0.400     0.485     1.094
    41   8 O        2.307    -0.542    23.748     6.582
    42   1 H        0.805     0.404     0.477     1.085
    43   1 H        0.806     0.394     0.496     1.106
    44   8 O        2.284    -0.564    24.252     6.651
    45   1 H        0.805     0.402     0.480     1.088
    46   1 H        0.805     0.400     0.484     1.093
    47   8 O        2.305    -0.542    23.753     6.582
    48   1 H        0.805     0.404     0.478     1.086
    49   1 H        0.807     0.390     0.502     1.113

 Mol. C6AA /au·bohr⁶  :      22105.333154
 Mol. C8AA /au·bohr⁸  :     580726.650925
 Mol. α(0) /au        :        229.057264


Wiberg/Mayer (AO) data.
largest (>0.10) Wiberg bond orders for each atom

 ---------------------------------------------------------------------------
     #   Z sym  total        # sym  WBO       # sym  WBO       # sym  WBO
 ---------------------------------------------------------------------------
     1   6 C    3.987 --     6 C    1.396     2 C    1.393    11 C    0.973
     2   6 C    3.986 --     3 C    1.452     1 C    1.393     7 H    0.965
                             5 C    0.108
     3   6 C    3.985 --     2 C    1.452     4 C    1.387     8 H    0.964
                             6 C    0.107
     4   6 C    3.984 --     5 C    1.387     3 C    1.387    21 C    1.000
     5   6 C    3.984 --     6 C    1.452     4 C    1.387     9 H    0.962
                             2 C    0.108
     6   6 C    3.985 --     5 C    1.452     1 C    1.396    10 H    0.963
                             3 C    0.107
     7   1 H    0.994 --     2 C    0.965
     8   1 H    0.995 --     3 C    0.964
     9   1 H    0.994 --     5 C    0.962
    10   1 H    0.991 --     6 C    0.963
    11   6 C    3.917 --    12 O    1.636    13 O    1.218     1 C    0.973
    12   8 O    2.042 --    11 C    1.636    13 O    0.167
    13   8 O    2.396 --    11 C    1.218    14 C    0.924    12 O    0.167
    14   6 C    3.908 --    15 C    1.012    16 H    0.966    17 H    0.964
                            13 O    0.924
    15   6 C    3.985 --    14 C    1.012    19 H    0.982    20 H    0.981
                            18 H    0.980
    16   1 H    0.996 --    14 C    0.966
    17   1 H    0.990 --    14 C    0.964
    18   1 H    0.996 --    15 C    0.980
    19   1 H    0.997 --    15 C    0.982
    20   1 H    0.993 --    15 C    0.981
    21   6 C    3.903 --    22 O    1.670    23 O    1.157     4 C    1.000
    22   8 O    1.971 --    21 C    1.670    23 O    0.169
    23   8 O    2.323 --    21 C    1.157    24 C    0.926    22 O    0.169
    24   6 C    3.916 --    25 C    1.012    27 H    0.970    26 H    0.969
                            23 O    0.926
    25   6 C    3.988 --    24 C    1.012    30 H    0.986    29 H    0.984
                            28 H    0.981
    26   1 H    0.993 --    24 C    0.969
    27   1 H    0.997 --    24 C    0.970
    28   1 H    0.995 --    25 C    0.981
    29   1 H    0.995 --    25 C    0.984
    30   1 H    0.997 --    25 C    0.986
    31  48 Cd   2.141 --    35 O    0.344    41 O    0.340    47 O    0.335
                            32 O    0.322    38 O    0.321    44 O    0.320
    32   8 O    2.083 --    34 H    0.830    33 H    0.828    31 Cd   0.322
    33   1 H    0.838 --    32 O    0.828
    34   1 H    0.840 --    32 O    0.830
    35   8 O    2.123 --    36 H    0.828    37 H    0.813    31 Cd   0.344
    36   1 H    0.839 --    35 O    0.828
    37   1 H    0.851 --    35 O    0.813
    38   8 O    2.078 --    40 H    0.830    39 H    0.826    31 Cd   0.321
    39   1 H    0.837 --    38 O    0.826
    40   1 H    0.840 --    38 O    0.830
    41   8 O    2.117 --    42 H    0.826    43 H    0.823    31 Cd   0.340
    42   1 H    0.837 --    41 O    0.826
    43   1 H    0.845 --    41 O    0.823
    44   8 O    2.076 --    46 H    0.830    45 H    0.827    31 Cd   0.320
    45   1 H    0.838 --    44 O    0.827
    46   1 H    0.840 --    44 O    0.830
    47   8 O    2.114 --    48 H    0.827    49 H    0.826    31 Cd   0.335
    48   1 H    0.837 --    47 O    0.827
    49   1 H    0.848 --    47 O    0.826
 ---------------------------------------------------------------------------

Topologies differ in total number of bonds
Writing topology from bond orders to xtbtopo.mol

molecular dipole:
                 x           y           z       tot (Debye)
 q only:       30.286      -0.778      -1.732
   full:       29.678      -0.768      -1.792      75.596
molecular quadrupole (traceless):
                xx          xy          yy          xz          yz          zz
 q only:      472.884     -31.843    -230.642     -81.903       0.970    -242.242
  q+dip:      468.469     -29.948    -229.521     -79.414      -1.336    -238.948
   full:      467.395     -31.502    -227.874     -80.543       0.580    -239.521

           -------------------------------------------------
          |                Geometry Summary                 |
           -------------------------------------------------

      molecular mass/u    :      442.7408973
   center of mass at/Å    :        4.7606244      -0.1881791      -0.5836267
  moments of inertia/u·Å² :        0.1150547E+04   0.8565314E+04   0.8967404E+04
rotational constants/cm⁻¹ :        0.1465184E-01   0.1968128E-02   0.1879879E-02

 * 46 selected distances

     #   Z          #   Z                                           value/Å
     1   6 C        2   6 C                                       1.3927954
     2   6 C        3   6 C                                       1.3811673
     3   6 C        4   6 C                                       1.3934496
     4   6 C        5   6 C                                       1.3928924
     1   6 C        6   6 C                                       1.3919263
     5   6 C        6   6 C                                       1.3818431
     2   6 C        7   1 H                                       1.0792565
     3   6 C        8   1 H                                       1.0791336
     5   6 C        9   1 H                                       1.0774766
     6   6 C       10   1 H                                       1.0783838
    11   6 C       12   8 O                                       1.2210766
    11   6 C       13   8 O                                       1.3127360
    13   8 O       14   6 C                                       1.4322774
    14   6 C       15   6 C                                       1.5212937
    14   6 C       16   1 H                                       1.0916834
    14   6 C       17   1 H                                       1.0905450
    15   6 C       18   1 H                                       1.0853749
Note: The following floating-point exceptions are signalling: IEEE_UNDERFLOW_FLAG IEEE_DENORMAL
normal termination of xtb
    15   6 C       19   1 H                                       1.0873993
    15   6 C       20   1 H                                       1.0861422
    21   6 C       22   8 O                                       1.2172060
    21   6 C       23   8 O                                       1.3288127
    23   8 O       24   6 C                                       1.4337620
    24   6 C       25   6 C                                       1.5213353
    24   6 C       26   1 H                                       1.0905234
    24   6 C       27   1 H                                       1.0944203
    25   6 C       28   1 H                                       1.0851701
    25   6 C       29   1 H                                       1.0867053
    25   6 C       30   1 H                                       1.0880101
    31  48 Cd      32   8 O                                       2.1639203
    32   8 O       33   1 H                                       0.9667112
    32   8 O       34   1 H                                       0.9671096
    31  48 Cd      35   8 O                                       2.1131738
    35   8 O       36   1 H                                       0.9680222
    35   8 O       37   1 H                                       0.9750065
    31  48 Cd      38   8 O                                       2.1661213
    38   8 O       39   1 H                                       0.9666143
    38   8 O       40   1 H                                       0.9668711
    31  48 Cd      41   8 O                                       2.1233284
    41   8 O       42   1 H                                       0.9674518
    41   8 O       43   1 H                                       0.9706238
    31  48 Cd      44   8 O                                       2.1729386 (max)
    44   8 O       45   1 H                                       0.9665199 (min)
    44   8 O       46   1 H                                       0.9671665
    31  48 Cd      47   8 O                                       2.1278901
    47   8 O       48   1 H                                       0.9677145
    47   8 O       49   1 H                                       0.9703460

 * 5 distinct bonds (by element types)

   Z      Z             #   av. dist./Å        max./Å        min./Å
   1 H    6 C          14     1.0857303     1.0944203     1.0774766
   6 C    6 C           8     1.4220879     1.5213353     1.3811673
   1 H    8 O          12     0.9683465     0.9750065     0.9665199
   6 C    8 O           6     1.3243118     1.4337620     1.2172060
   8 O   48 Cd          6     2.1445621     2.1729386     2.1131738


optimized geometry written to: xtbopt.xyz


           -------------------------------------------------
          | TOTAL ENERGY              -79.733790505387 Eh   |
          | GRADIENT NORM               0.000573030862 Eh/α |
          | HOMO-LUMO GAP               3.591002145713 eV   |
           -------------------------------------------------

------------------------------------------------------------------------
 * finished run on 2026/05/26 at 02:23:21.280     
------------------------------------------------------------------------
 total:
 * wall-time:     0 d,  0 h,  1 min, 11.114 sec
 *  cpu-time:     0 d,  0 h,  1 min, 54.329 sec
 * ratio c/w:     1.608 speedup
 SCF:
 * wall-time:     0 d,  0 h,  0 min,  0.525 sec
 *  cpu-time:     0 d,  0 h,  0 min,  0.908 sec
 * ratio c/w:     1.729 speedup
 ANC optimizer:
 * wall-time:     0 d,  0 h,  1 min, 10.531 sec
 *  cpu-time:     0 d,  0 h,  1 min, 53.312 sec
 * ratio c/w:     1.607 speedup

