      -----------------------------------------------------------      
     |                   =====================                   |     
     |                           x T B                           |     
     |                   =====================                   |     
     |                         S. Grimme                         |     
     |          Mulliken Center for Theoretical Chemistry        |     
     |                    University of Bonn                     |     
      -----------------------------------------------------------      

   * xtb version 6.7.1 (edcfbbe) compiled by 'conda@c0858423619e' on 2025-09-04

   xtb is free software: you can redistribute it and/or modify it under
   the terms of the GNU Lesser General Public License as published by
   the Free Software Foundation, either version 3 of the License, or
   (at your option) any later version.
   
   xtb is distributed in the hope that it will be useful,
   but WITHOUT ANY WARRANTY; without even the implied warranty of
   MERCHANTABILITY or FITNESS FOR A PARTICULAR PURPOSE.  See the
   GNU Lesser General Public License for more details.
   
   Cite this work as:
   * C. Bannwarth, E. Caldeweyher, S. Ehlert, A. Hansen, P. Pracht,
     J. Seibert, S. Spicher, S. Grimme, WIREs Comput. Mol. Sci., 2020, 11,
     e01493. DOI: 10.1002/wcms.1493
   
   for GFN2-xTB:
   * C. Bannwarth, S. Ehlert and S. Grimme., J. Chem. Theory Comput., 2019,
     15, 1652-1671. DOI: 10.1021/acs.jctc.8b01176
   for GFN1-xTB:
   * S. Grimme, C. Bannwarth, P. Shushkov, J. Chem. Theory Comput., 2017,
     13, 1989-2009. DOI: 10.1021/acs.jctc.7b00118
   for GFN0-xTB:
   * P. Pracht, E. Caldeweyher, S. Ehlert, S. Grimme, ChemRxiv, 2019, preprint.
     DOI: 10.26434/chemrxiv.8326202.v1
   for GFN-FF:
   * S. Spicher and S. Grimme, Angew. Chem. Int. Ed., 2020, 59, 15665-15673.
     DOI: 10.1002/anie.202004239
   
   for ALPB and GBSA implicit solvation:
   * S. Ehlert, M. Stahn, S. Spicher, S. Grimme, J. Chem. Theory Comput.,
     2021, 17, 4250-4261. DOI: 10.1021/acs.jctc.1c00471
   
   for ddCOSMO and CPCM-X implicit solvation:
   * M. Stahn, S. Ehlert, S. Grimme, J. Phys. Chem. A,
     2023, XX, XXXX-XXXX. DOI: 10.1021/acs.jpca.3c04382
   
   for DFT-D4:
   * E. Caldeweyher, C. Bannwarth and S. Grimme, J. Chem. Phys., 2017,
     147, 034112. DOI: 10.1063/1.4993215
   * E. Caldeweyher, S. Ehlert, A. Hansen, H. Neugebauer, S. Spicher,
     C. Bannwarth and S. Grimme, J. Chem. Phys., 2019, 150, 154122.
     DOI: 10.1063/1.5090222
   * E. Caldeweyher, J.-M. Mewes, S. Ehlert and S. Grimme, Phys. Chem. Chem. Phys.
     2020, 22, 8499-8512. DOI: 10.1039/D0CP00502A
   
   for sTDA-xTB:
   * S. Grimme and C. Bannwarth, J. Chem. Phys., 2016, 145, 054103.
     DOI: 10.1063/1.4959605
   
   in the mass-spec context:
   * V. Asgeirsson, C. Bauer and S. Grimme, Chem. Sci., 2017, 8, 4879.
     DOI: 10.1039/c7sc00601b
   * J. Koopman and S. Grimme, ACS Omega 2019, 4, 12, 15120-15133.
     DOI: 10.1021/acsomega.9b02011
   
   for metadynamics refer to:
   * S. Grimme, J. Chem. Theory Comput., 2019, 155, 2847-2862
     DOI: 10.1021/acs.jctc.9b00143
   
   for SPH calculations refer to:
   * S. Spicher and S. Grimme, J. Chem. Theory Comput., 2021, 17, 1701-1714
     DOI: 10.1021/acs.jctc.0c01306
   
   for ONIOM refer to:
   * C. Plett, A. Katbashev, S. Ehlert, S. Grimme, M. Bursch,
     Phys. Chem. Chem. Phys., 2023, 25, 17860-17868. DOI: 10.1039/D3CP02178E
   
   for DIPRO refer to:
   * J. Kohn, N. Gildemeister, S. Grimme, D. Fazzi, A. Hansen,
     J. Chem. Phys., 2023, just accepted.
   
   for PTB refer to:
   * S. Grimme, M. Mueller, A. Hansen, J. Chem. Phys., 2023, 158, 124111.
     DOI: 10.1063/5.0137838
   
   with help from (in alphabetical order)
   P. Atkinson, C. Bannwarth, F. Bohle, G. Brandenburg, E. Caldeweyher
   M. Checinski, S. Dohm, S. Ehlert, S. Ehrlich, I. Gerasimov, C. Hölzer
   A. Katbashev, J. Kohn, J. Koopman, C. Lavigne, S. Lehtola, F. März, M. Müller,
   F. Musil, H. Neugebauer, J. Pisarek, C. Plett, P. Pracht, F. Pultar,
   J. Seibert, P. Shushkov, S. Spicher, M. Stahn, M. Steiner, T. Strunk,
   J. Stückrath, T. Rose, and J. Unsleber
   
 * started run on 2026/05/26 at 02:24:21.607     
   ID    Z sym.   atoms
    1    6 C      1-6, 11, 14, 15, 21
    2    1 H      7-10, 16-20, 24, 27, 28, 30, 31, 33, 34, 36, 37, 39, 40,
                  42, 43
    3    8 O      12, 13, 22, 23, 26, 29, 32, 35, 38, 41
    4   48 Cd     25

           -------------------------------------------------
          |                Calculation Setup                |
           -------------------------------------------------

          program call               : /content/xtb_env/bin/xtb input.xyz --gfn 2 --opt tight --alpb water --chrg 2 --uhf 0
          hostname                   : 01035569fb61
          coordinate file            : input.xyz
          omp threads                :                     2


molecular fragmentation (1/2 indicates fragments):
1111111111111111111111111111111111111222222
# atoms in fragment 1/2:    37     6
 fragment masses (1/2) :      378.66       36.03
CMA distance (Bohr)    :   7.136
constraining FC (au)   :  0.0500

           -------------------------------------------------
          |                 G F N 2 - x T B                 |
           -------------------------------------------------

        Reference                      10.1021/acs.jctc.8b01176
      * Hamiltonian:
        H0-scaling (s, p, d)           1.850000    2.230000    2.230000
        zeta-weighting                 0.500000
      * Dispersion:
        s8                             2.700000
        a1                             0.520000
        a2                             5.000000
        s9                             5.000000
      * Repulsion:
        kExp                           1.500000    1.000000
        rExp                           1.000000
      * Coulomb:
        alpha                          2.000000
        third order                    shell-resolved
        anisotropic                    true
        a3                             3.000000
        a5                             4.000000
        cn-shift                       1.200000
        cn-exp                         4.000000
        max-rad                        5.000000

      * Solvation model:               ALPB
        Solvent                        water
        Parameter file                 internal GFN2-xTB/ALPB
        Dielectric constant                8.0200E+01
        Reference state                gsolv [1 M gas/solution]
        Free energy shift                  1.0808E-03 Eh       6.7819E-01 kcal/mol
        Temperature                        2.9815E+02 K
        Density                            1.0000E+00 kg/L
        Solvent mass                       1.8000E+01 g/mol
        Interaction kernel             P16
        Born radius scaling (c1)           1.4744E+00
        Born radii integrator          GBOBC
        Born offset                        0.0000E+00 a0       0.0000E+00 AA
        H-bond correction              true
        Ion screening                  false
        Surface tension                    1.0000E-05 Eh       1.5569E+01 dyn/cm
        Grid points                               230 per atom

          ...................................................
          :                      SETUP                      :
          :.................................................:
          :  # basis functions                 106          :
          :  # atomic orbitals                 106          :
          :  # shells                           64          :
          :  # electrons                       122          :
          :  max. iterations                   250          :
          :  Hamiltonian                  GFN2-xTB          :
          :  restarted?                      false          :
          :  GBSA solvation                   true          :
          :  PC potential                    false          :
          :  electronic temp.          300.0000000     K    :
          :  accuracy                    1.0000000          :
          :  -> integral cutoff          0.2500000E+02      :
          :  -> integral neglect         0.1000000E-07      :
          :  -> SCF convergence          0.1000000E-05 Eh   :
          :  -> wf. convergence          0.1000000E-03 e    :
          :  Broyden damping             0.4000000          :
          :  net charge                          2          :
          :  unpaired electrons                  0          :
          ...................................................

 iter      E             dE          RMSdq      gap      omega  full diag
   1    -71.4336979 -0.714337E+02  0.641E+00    0.52       0.0  T
   2    -72.0950138 -0.661316E+00  0.519E+00    0.86       1.0  T
   3    -72.4330973 -0.338084E+00  0.305E+00    0.20       1.0  T
   4    -71.8378664  0.595231E+00  0.347E+00    0.42       1.0  T
   5    -72.4595090 -0.621643E+00  0.122E+00    0.15       1.0  T
   6    -72.4424679  0.170411E-01  0.789E-01    0.40       1.0  T
   7    -72.3888153  0.536526E-01  0.125E+00    0.13       1.0  T
   8    -72.4602221 -0.714068E-01  0.591E-01    0.34       1.0  T
   9    -72.4660124 -0.579023E-02  0.582E-01    0.15       1.0  T
  10    -72.4615069  0.450542E-02  0.572E-01    0.14       1.0  T
  11    -72.4763009 -0.147939E-01  0.199E-01    0.09       1.0  T
  12    -72.4739621  0.233880E-02  0.256E-01    0.17       1.0  T
  13    -72.4675808  0.638134E-02  0.429E-01    0.07       1.0  T
  14    -72.4787574 -0.111766E-01  0.373E-02    0.12       1.0  T
  15    -72.4787969 -0.395240E-04  0.190E-02    0.11       1.0  T
  16    -72.4788081 -0.112212E-04  0.178E-02    0.12       1.0  T
  17    -72.4788261 -0.179541E-04  0.244E-03    0.11       6.3  T
  18    -72.4788234  0.270613E-05  0.722E-03    0.12       2.1  T
  19    -72.4788264 -0.301078E-05  0.185E-03    0.11       8.3  T
  20    -72.4788264 -0.359245E-07  0.158E-03    0.11       9.6  T
  21    -72.4788266 -0.126262E-06  0.456E-04    0.11      33.5  T
  22    -72.4788266 -0.851287E-09  0.423E-04    0.11      36.1  T

   *** convergence criteria satisfied after 22 iterations ***

         #    Occupation            Energy/Eh            Energy/eV
      -------------------------------------------------------------
         1        2.0000           -0.8659567             -23.5639
       ...           ...                  ...                  ...
        55        2.0000           -0.3759559             -10.2303
        56        2.0000           -0.3739950             -10.1769
        57        2.0000           -0.3652732              -9.9396
        58        2.0000           -0.3011479              -8.1947
        59        2.0000           -0.2965815              -8.0704
        60        1.9960           -0.2614798              -7.1152
        61        1.8059           -0.2576962              -7.0123 (HOMO)
        62        0.1981           -0.2534794              -6.8975 (LUMO)
        63                         -0.2049465              -5.5769
        64                         -0.1971154              -5.3638
        65                         -0.1303850              -3.5480
        66                         -0.1150042              -3.1294
       ...                                ...                  ...
       106                          2.9201936              79.4625
      -------------------------------------------------------------
                  HL-Gap            0.0042167 Eh            0.1147 eV
             Fermi-level           -0.2555770 Eh           -6.9546 eV

 SCC (total)                   0 d,  0 h,  0 min,  0.880 sec
 SCC setup                      ...        0 min,  0.008 sec (  0.944%)
 Dispersion                     ...        0 min,  0.013 sec (  1.478%)
 classical contributions        ...        0 min,  0.006 sec (  0.691%)
 integral evaluation            ...        0 min,  0.022 sec (  2.556%)
 iterations                     ...        0 min,  0.708 sec ( 80.515%)
 molecular gradient             ...        0 min,  0.111 sec ( 12.634%)
 printout                       ...        0 min,  0.010 sec (  1.176%)

         :::::::::::::::::::::::::::::::::::::::::::::::::::::
         ::                     SUMMARY                     ::
         :::::::::::::::::::::::::::::::::::::::::::::::::::::
         :: total energy             -71.263633722291 Eh    ::
         :: total w/o Gsasa/hb       -71.186700007723 Eh    ::
         :: gradient norm              3.626564996280 Eh/a0 ::
         :: HOMO-LUMO gap              0.114743109302 eV    ::
         ::.................................................::
         :: SCC energy               -72.479044557451 Eh    ::
         :: -> isotropic ES            0.684198828361 Eh    ::
         :: -> anisotropic ES          0.000694600799 Eh    ::
         :: -> anisotropic XC         -0.081667354001 Eh    ::
         :: -> dispersion             -0.035408149486 Eh    ::
         :: -> Gsolv                  -0.457223266094 Eh    ::
         ::    -> Gelec               -0.380289551526 Eh    ::
         ::    -> Gsasa                0.000876685626 Eh    ::
         ::    -> Ghb                 -0.078891159892 Eh    ::
         ::    -> Gshift               0.001080759698 Eh    ::
         :: repulsion energy           1.215410835160 Eh    ::
         :: add. restraining           0.000000000000 Eh    ::
         :: total charge               2.000000000000 e     ::
         :::::::::::::::::::::::::::::::::::::::::::::::::::::

      ----------------------------------------------------------- 
     |                   =====================                   |
     |                        A N C O P T                        |
     |                   =====================                   |
     |               Approximate Normal Coordinate               |
     |                Rational Function Optimizer                |
      ----------------------------------------------------------- 
      ----------------------------------------------------------- 
     |                   =====================                   |
     |                        A N C O P T                        |
     |                   =====================                   |
     |               Approximate Normal Coordinate               |
     |                Rational Function Optimizer                |
      ----------------------------------------------------------- 

          ...................................................
          :                      SETUP                      :
          :.................................................:
          :   optimization level             tight          :
          :   max. optcycles                   215          :
          :   ANC micro-cycles                  20          :
          :   degrees of freedom               123          :
          :.................................................:
          :   RF solver                   davidson          :
          :   write xtbopt.log                true          :
          :   linear?                        false          :
          :   energy convergence         0.1000000E-05 Eh   :
          :   grad. convergence          0.8000000E-03 Eh/α :
          :   maxmium RF displ.          1.0000000          :
          :   Hlow (freq-cutoff)         0.1000000E-01      :
          :   Hmax (freq-cutoff)         5.0000000          :
          :   S6 in model hess.         20.0000000          :
          ...................................................

generating ANC from exact Hessian ...
Using Lindh-Hessian (1995)
 Shifting diagonal of input Hessian by    1.0143628699449589E-002
 Lowest  eigenvalues of input Hessian
    0.010000    0.010059    0.010082    0.010085    0.000000    0.010118
    0.000000    0.000000    0.000000    0.000000    0.000000    0.010188
    0.010266    0.010348    0.010470    0.010509    0.010576    0.010603
 Highest eigenvalues
    2.613205    2.793284    3.182104    3.769115    5.326811    5.934575


........................................................................
.............................. CYCLE    1 ..............................
........................................................................

 iter      E             dE          RMSdq      gap      omega  full diag
   1    -72.4788266 -0.724788E+02  0.130E-04    0.11       0.0  T
   2    -72.4788264  0.132252E-06  0.132E-03    0.11      11.6  T
   3    -72.4788266 -0.129969E-06  0.249E-04    0.11      61.3  T
   4    -72.4788266 -0.318020E-08  0.789E-05    0.11     193.3  T
     SCC iter.                  ...        0 min,  0.227 sec
     gradient                   ...        0 min,  0.071 sec
 * total energy  :   -71.2636337 Eh     change       -0.6011433E-08 Eh
   gradient norm :     3.6265940 Eh/α   predicted     0.0000000E+00 (-100.00%)
   displ. norm   :     0.5847779 α      lambda       -0.2053458E+01
   maximum displ.:     0.3548537 α      in ANC's #122, #123, #120, ...

........................................................................
.............................. CYCLE    2 ..............................
........................................................................

 iter      E             dE          RMSdq      gap      omega  full diag
   1    -72.9722799 -0.729723E+02  0.144E+00    0.24       0.0  T
   2    -72.3419393  0.630341E+00  0.357E+00    0.71       1.0  T
   3    -72.9890872 -0.647148E+00  0.947E-01    0.43       1.0  T
   4    -72.9924240 -0.333681E-02  0.640E-01    0.32       1.0  T
   5    -72.9937343 -0.131038E-02  0.469E-01    0.33       1.0  T
   6    -73.0008620 -0.712766E-02  0.239E-01    0.17       1.0  T
   7    -73.0024326 -0.157061E-02  0.144E-01    0.14       1.0  T
   8    -73.0033297 -0.897124E-03  0.365E-02    0.12       1.0  T
   9    -73.0033770 -0.472729E-04  0.826E-03    0.12       1.8  T
  10    -73.0033778 -0.773120E-06  0.589E-03    0.12       2.6  T
  11    -73.0033791 -0.126997E-05  0.191E-03    0.12       8.0  T
  12    -73.0033779  0.114137E-05  0.478E-03    0.12       3.2  T
  13    -73.0033760  0.187832E-05  0.743E-03    0.12       2.1  T
  14    -73.0033791 -0.304314E-05  0.171E-03    0.12       8.9  T
  15    -73.0033791 -0.736107E-07  0.123E-03    0.12      12.4  T
  16    -73.0033792 -0.878750E-07  0.280E-05    0.12     544.9  T
  17    -73.0033792  0.485130E-09  0.921E-05    0.12     165.6  T
     SCC iter.                  ...        0 min,  0.234 sec
     gradient                   ...        0 min,  0.048 sec
 * total energy  :   -72.1638056 Eh     change       -0.9001719E+00 Eh
   gradient norm :     0.7203164 Eh/α   predicted    -0.1377834E+01 (  53.06%)
   displ. norm   :     0.6219934 α      lambda       -0.3218533E+00
   maximum displ.:     0.2573473 α      in ANC's #63, #61, #59, ...

........................................................................
.............................. CYCLE    3 ..............................
........................................................................

 iter      E             dE          RMSdq      gap      omega  full diag
   1    -73.1761563 -0.731762E+02  0.630E-01    0.49       0.0  T
   2    -72.4984136  0.677743E+00  0.360E+00    0.21       1.0  T
   3    -73.1811004 -0.682687E+00  0.367E-01    0.24       1.0  T
   4    -73.1796796  0.142085E-02  0.295E-01    0.11       1.0  T
   5    -73.1707262  0.895339E-02  0.479E-01    0.08       1.0  T
   6    -73.1819742 -0.112480E-01  0.123E-01    0.13       1.0  T
   7    -73.1824300 -0.455801E-03  0.727E-02    0.14       1.0  T
   8    -73.1826669 -0.236879E-03  0.232E-02    0.15       1.0  T
   9    -73.1826906 -0.236497E-04  0.523E-03    0.15       2.9  T
  10    -73.1826914 -0.819814E-06  0.203E-03    0.15       7.5  T
  11    -73.1826915 -0.166389E-06  0.638E-04    0.15      23.9  T
  12    -73.1826915  0.228119E-07  0.807E-04    0.15      18.9  T
     SCC iter.                  ...        0 min,  0.110 sec
     gradient                   ...        0 min,  0.051 sec
 * total energy  :   -72.4206917 Eh     change       -0.2568861E+00 Eh
   gradient norm :     0.4186286 Eh/α   predicted    -0.2231860E+00 ( -13.12%)
   displ. norm   :     0.7170593 α      lambda       -0.2330905E+00
   maximum displ.:     0.2616950 α      in ANC's #63, #59, #61, ...

........................................................................
.............................. CYCLE    4 ..............................
........................................................................

 iter      E             dE          RMSdq      gap      omega  full diag
   1    -73.3286644 -0.733287E+02  0.797E-01    0.89       0.0  T
   2    -73.3312834 -0.261896E-02  0.416E-01    0.89       1.0  T
   3    -73.3312110  0.723847E-04  0.180E-01    0.96       1.0  T
   4    -73.3315883 -0.377292E-03  0.611E-02    0.91       1.0  T
   5    -73.3316336 -0.452913E-04  0.264E-02    0.91       1.0  T
   6    -73.3316377 -0.406767E-05  0.144E-02    0.92       1.1  T
   7    -73.3316391 -0.146068E-05  0.498E-03    0.93       3.1  T
   8    -73.3316393 -0.177542E-06  0.228E-03    0.93       6.7  T
   9    -73.3316394 -0.514893E-07  0.935E-04    0.93      16.3  T
  10    -73.3316394 -0.393467E-08  0.417E-04    0.93      36.6  T
     SCC iter.                  ...        0 min,  0.099 sec
     gradient                   ...        0 min,  0.086 sec
 * total energy  :   -72.6140820 Eh     change       -0.1933902E+00 Eh
   gradient norm :     0.2583139 Eh/α   predicted    -0.1764699E+00 (  -8.75%)
   displ. norm   :     0.7921825 α      lambda       -0.1720963E+00
   maximum displ.:     0.3043862 α      in ANC's #59, #57, #56, ...

........................................................................
.............................. CYCLE    5 ..............................
........................................................................

 iter      E             dE          RMSdq      gap      omega  full diag
   1    -73.4219318 -0.734219E+02  0.844E-01    1.77       0.0  T
   2    -73.4279868 -0.605494E-02  0.353E-01    1.98       1.0  T
   3    -73.4281186 -0.131770E-03  0.195E-01    1.97       1.0  T
   4    -73.4281747 -0.561076E-04  0.550E-02    1.99       1.0  T
   5    -73.4282241 -0.494692E-04  0.273E-02    1.98       1.0  T
   6    -73.4282275 -0.339629E-05  0.151E-02    1.98       1.0  T
   7    -73.4282290 -0.146039E-05  0.486E-03    1.98       3.1  T
   8    -73.4282291 -0.128128E-06  0.149E-03    1.98      10.2  T
   9    -73.4282291 -0.164552E-07  0.856E-04    1.98      17.8  T
  10    -73.4282291 -0.539934E-08  0.336E-04    1.98      45.4  T
     SCC iter.                  ...        0 min,  0.129 sec
     gradient                   ...        0 min,  0.055 sec
 * total energy  :   -72.7515183 Eh     change       -0.1374363E+00 Eh
   gradient norm :     0.2103633 Eh/α   predicted    -0.1400481E+00 (   1.90%)
   displ. norm   :     0.7167465 α      lambda       -0.1075673E+00
   maximum displ.:     0.2627121 α      in ANC's #59, #57, #56, ...

........................................................................
.............................. CYCLE    6 ..............................
........................................................................

 iter      E             dE          RMSdq      gap      omega  full diag
   1    -73.4863239 -0.734863E+02  0.587E-01    1.51       0.0  T
   2    -73.4907190 -0.439509E-02  0.292E-01    1.80       1.0  T
   3    -73.4911220 -0.403011E-03  0.172E-01    1.70       1.0  T
   4    -73.4912750 -0.153009E-03  0.640E-02    1.74       1.0  T
   5    -73.4913161 -0.411056E-04  0.278E-02    1.73       1.0  T
   6    -73.4913187 -0.259249E-05  0.161E-02    1.73       1.0  T
   7    -73.4913194 -0.655851E-06  0.620E-03    1.73       2.5  T
   8    -73.4913199 -0.548440E-06  0.180E-03    1.73       8.5  T
   9    -73.4913199 -0.205810E-07  0.100E-03    1.73      15.2  T
  10    -73.4913199 -0.672541E-08  0.490E-04    1.73      31.1  T
  11    -73.4913199 -0.197969E-08  0.182E-04    1.73      83.7  T
     SCC iter.                  ...        0 min,  0.206 sec
     gradient                   ...        0 min,  0.049 sec
 * total energy  :   -72.8413335 Eh     change       -0.8981526E-01 Eh
   gradient norm :     0.1996058 Eh/α   predicted    -0.8141372E-01 (  -9.35%)
   displ. norm   :     0.7167302 α      lambda       -0.8988321E-01
   maximum displ.:     0.2432306 α      in ANC's #38, #59, #57, ...

........................................................................
.............................. CYCLE    7 ..............................
........................................................................

 iter      E             dE          RMSdq      gap      omega  full diag
   1    -73.5405194 -0.735405E+02  0.708E-01    1.15       0.0  T
   2    -73.5464591 -0.593979E-02  0.508E-01    1.64       1.0  T
   3    -73.5533367 -0.687752E-02  0.194E-01    1.38       1.0  T
   4    -73.5533869 -0.502435E-04  0.843E-02    1.37       1.0  T
   5    -73.5534371 -0.502201E-04  0.328E-02    1.38       1.0  T
   6    -73.5534472 -0.100678E-04  0.177E-02    1.38       1.0  T
   7    -73.5534481 -0.873918E-06  0.920E-03    1.38       1.7  T
   8    -73.5534489 -0.835469E-06  0.211E-03    1.38       7.2  T
   9    -73.5534490 -0.559813E-07  0.105E-03    1.38      14.5  T
  10    -73.5534490 -0.499153E-08  0.522E-04    1.38      29.2  T
  11    -73.5534490 -0.281889E-08  0.219E-04    1.38      69.7  T
     SCC iter.                  ...        0 min,  0.209 sec
     gradient                   ...        0 min,  0.084 sec
 * total energy  :   -72.9157729 Eh     change       -0.7443941E-01 Eh
   gradient norm :     0.1784046 Eh/α   predicted    -0.6802822E-01 (  -8.61%)
   displ. norm   :     0.6821218 α      lambda       -0.7180568E-01
   maximum displ.:     0.2598588 α      in ANC's #38, #39, #57, ...

........................................................................
.............................. CYCLE    8 ..............................
........................................................................

 iter      E             dE          RMSdq      gap      omega  full diag
   1    -73.5954357 -0.735954E+02  0.854E-01    1.06       0.0  T
   2    -73.5935211  0.191460E-02  0.826E-01    1.61       1.0  T
   3    -73.6163433 -0.228222E-01  0.200E-01    1.23       1.0  T
   4    -73.6163562 -0.128718E-04  0.102E-01    1.19       1.0  T
   5    -73.6164873 -0.131077E-03  0.306E-02    1.20       1.0  T
   6    -73.6165017 -0.144388E-04  0.139E-02    1.21       1.1  T
   7    -73.6165037 -0.196347E-05  0.764E-03    1.21       2.0  T
   8    -73.6165039 -0.221692E-06  0.286E-03    1.21       5.3  T
   9    -73.6165041 -0.139276E-06  0.916E-04    1.21      16.7  T
  10    -73.6165041 -0.300540E-08  0.502E-04    1.21      30.4  T
     SCC iter.                  ...        0 min,  0.147 sec
     gradient                   ...        0 min,  0.045 sec
 * total energy  :   -72.9735567 Eh     change       -0.5778375E-01 Eh
   gradient norm :     0.1570624 Eh/α   predicted    -0.5260811E-01 (  -8.96%)
   displ. norm   :     0.6544399 α      lambda       -0.5394638E-01
   maximum displ.:     0.2667568 α      in ANC's #38, #39, #77, ...

........................................................................
.............................. CYCLE    9 ..............................
........................................................................

 iter      E             dE          RMSdq      gap      omega  full diag
   1    -73.6484045 -0.736484E+02  0.937E-01    1.11       0.0  T
   2    -73.6315798  0.168247E-01  0.109E+00    1.59       1.0  T
   3    -73.6740704 -0.424907E-01  0.192E-01    1.19       1.0  T
   4    -73.6739004  0.169995E-03  0.116E-01    1.16       1.0  T
   5    -73.6742032 -0.302786E-03  0.212E-02    1.17       1.0  T
   6    -73.6742103 -0.708581E-05  0.963E-03    1.18       1.6  T
   7    -73.6742120 -0.166250E-05  0.435E-03    1.18       3.5  T
   8    -73.6742120 -0.663786E-07  0.213E-03    1.18       7.2  T
   9    -73.6742121 -0.434152E-07  0.650E-04    1.18      23.5  T
  10    -73.6742121 -0.244015E-08  0.420E-04    1.18      36.3  T
     SCC iter.                  ...        0 min,  0.208 sec
     gradient                   ...        0 min,  0.087 sec
 * total energy  :   -73.0179472 Eh     change       -0.4439046E-01 Eh
   gradient norm :     0.1596917 Eh/α   predicted    -0.3852560E-01 ( -13.21%)
   displ. norm   :     0.6606970 α      lambda       -0.5049359E-01
   maximum displ.:     0.2568706 α      in ANC's #77, #38, #81, ...

........................................................................
.............................. CYCLE   10 ..............................
........................................................................

 iter      E             dE          RMSdq      gap      omega  full diag
   1    -73.6997926 -0.736998E+02  0.103E+00    1.29       0.0  T
   2    -73.6657034  0.340892E-01  0.134E+00    1.58       1.0  T
   3    -73.7309074 -0.652040E-01  0.204E-01    1.25       1.0  T
   4    -73.7308778  0.295231E-04  0.996E-02    1.24       1.0  T
   5    -73.7310459 -0.168025E-03  0.211E-02    1.24       1.0  T
   6    -73.7310517 -0.581366E-05  0.102E-02    1.24       1.5  T
   7    -73.7310535 -0.186343E-05  0.374E-03    1.24       4.1  T
   8    -73.7310535 -0.202462E-08  0.156E-03    1.24       9.8  T
   9    -73.7310536 -0.318062E-07  0.564E-04    1.24      27.0  T
  10    -73.7310536 -0.655480E-08  0.271E-04    1.24      56.3  T
     SCC iter.                  ...        0 min,  0.085 sec
     gradient                   ...        0 min,  0.049 sec
 * total energy  :   -73.0610105 Eh     change       -0.4306338E-01 Eh
   gradient norm :     0.1597136 Eh/α   predicted    -0.3626755E-01 ( -15.78%)
   displ. norm   :     0.6832372 α      lambda       -0.5192369E-01
   maximum displ.:     0.3085802 α      in ANC's #77, #38, #42, ...

........................................................................
.............................. CYCLE   11 ..............................
........................................................................

 iter      E             dE          RMSdq      gap      omega  full diag
   1    -73.7635424 -0.737635E+02  0.972E-01    1.57       0.0  T
   2    -73.7312796  0.322628E-01  0.126E+00    1.49       1.0  T
   3    -73.7891239 -0.578443E-01  0.269E-01    1.44       1.0  T
   4    -73.7900123 -0.888377E-03  0.715E-02    1.40       1.0  T
   5    -73.7900680 -0.557407E-04  0.261E-02    1.41       1.0  T
   6    -73.7900779 -0.983545E-05  0.130E-02    1.41       1.2  T
   7    -73.7900791 -0.122799E-05  0.565E-03    1.41       2.7  T
   8    -73.7900792 -0.700125E-07  0.298E-03    1.41       5.1  T
   9    -73.7900794 -0.188619E-06  0.728E-04    1.41      20.9  T
  10    -73.7900794 -0.654587E-08  0.409E-04    1.41      37.3  T
     SCC iter.                  ...        0 min,  0.103 sec
     gradient                   ...        0 min,  0.086 sec
 * total energy  :   -73.1029600 Eh     change       -0.4194950E-01 Eh
   gradient norm :     0.1439989 Eh/α   predicted    -0.3808120E-01 (  -9.22%)
   displ. norm   :     0.6520970 α      lambda       -0.4154601E-01
   maximum displ.:     0.2609395 α      in ANC's #77, #42, #39, ...

........................................................................
.............................. CYCLE   12 ..............................
........................................................................

 iter      E             dE          RMSdq      gap      omega  full diag
   1    -73.8290205 -0.738290E+02  0.653E-01    1.68       0.0  T
   2    -73.8197998  0.922068E-02  0.708E-01    1.46       1.0  T
   3    -73.8382179 -0.184181E-01  0.237E-01    1.59       1.0  T
   4    -73.8389834 -0.765554E-03  0.560E-02    1.54       1.0  T
   5    -73.8390068 -0.233987E-04  0.205E-02    1.54       1.0  T
   6    -73.8390108 -0.398879E-05  0.113E-02    1.55       1.4  T
   7    -73.8390114 -0.625779E-06  0.421E-03    1.54       3.6  T
   8    -73.8390116 -0.186559E-06  0.147E-03    1.54      10.4  T
   9    -73.8390116 -0.189014E-07  0.898E-04    1.54      17.0  T
  10    -73.8390116 -0.765228E-08  0.352E-04    1.54      43.4  T
     SCC iter.                  ...        0 min,  0.125 sec
     gradient                   ...        0 min,  0.074 sec
 * total energy  :   -73.1370815 Eh     change       -0.3412149E-01 Eh
   gradient norm :     0.1533653 Eh/α   predicted    -0.2960634E-01 ( -13.23%)
   displ. norm   :     0.6441290 α      lambda       -0.4527650E-01
   maximum displ.:     0.2848984 α      in ANC's #39, #42, #77, ...

........................................................................
.............................. CYCLE   13 ..............................
........................................................................

 iter      E             dE          RMSdq      gap      omega  full diag
   1    -73.8843709 -0.738844E+02  0.501E-01    1.70       0.0  T
   2    -73.8835981  0.772791E-03  0.363E-01    1.51       1.0  T
   3    -73.8875709 -0.397273E-02  0.232E-01    1.67       1.0  T
   4    -73.8883480 -0.777119E-03  0.661E-02    1.62       1.0  T
   5    -73.8883736 -0.256672E-04  0.178E-02    1.61       1.0  T
   6    -73.8883760 -0.234816E-05  0.102E-02    1.61       1.5  T
   7    -73.8883765 -0.562190E-06  0.373E-03    1.61       4.1  T
   8    -73.8883767 -0.136403E-06  0.136E-03    1.61      11.2  T
   9    -73.8883767 -0.898400E-08  0.784E-04    1.61      19.5  T
  10    -73.8883767 -0.652923E-08  0.311E-04    1.61      49.0  T
     SCC iter.                  ...        0 min,  0.136 sec
     gradient                   ...        0 min,  0.090 sec
 * total energy  :   -73.1761592 Eh     change       -0.3907764E-01 Eh
   gradient norm :     0.1647008 Eh/α   predicted    -0.3203094E-01 ( -18.03%)
   displ. norm   :     0.6992880 α      lambda       -0.5814471E-01
   maximum displ.:     0.2275318 α      in ANC's #42, #38, #71, ...

........................................................................
.............................. CYCLE   14 ..............................
........................................................................

 iter      E             dE          RMSdq      gap      omega  full diag
   1    -73.9290877 -0.739291E+02  0.576E-01    1.87       0.0  T
   2    -73.9310016 -0.191390E-02  0.314E-01    1.59       1.0  T
   3    -73.9327556 -0.175401E-02  0.243E-01    1.79       1.0  T
   4    -73.9334387 -0.683104E-03  0.547E-02    1.72       1.0  T
   5    -73.9334436 -0.490095E-05  0.186E-02    1.71       1.0  T
   6    -73.9334461 -0.246805E-05  0.112E-02    1.71       1.4  T
   7    -73.9334469 -0.753211E-06  0.431E-03    1.71       3.5  T
   8    -73.9334470 -0.872639E-07  0.135E-03    1.71      11.3  T
   9    -73.9334470 -0.769509E-08  0.716E-04    1.71      21.3  T
  10    -73.9334470 -0.340623E-08  0.303E-04    1.71      50.3  T
     SCC iter.                  ...        0 min,  0.096 sec
     gradient                   ...        0 min,  0.053 sec
 * total energy  :   -73.2227197 Eh     change       -0.4656058E-01 Eh
   gradient norm :     0.1426751 Eh/α   predicted    -0.4328892E-01 (  -7.03%)
   displ. norm   :     0.6309122 α      lambda       -0.4573683E-01
   maximum displ.:     0.2167800 α      in ANC's #39, #74, #57, ...

........................................................................
.............................. CYCLE   15 ..............................
........................................................................

 iter      E             dE          RMSdq      gap      omega  full diag
   1    -73.9774121 -0.739774E+02  0.536E-01    1.97       0.0  T
   2    -73.9791397 -0.172759E-02  0.275E-01    1.73       1.0  T
   3    -73.9793189 -0.179164E-03  0.188E-01    1.87       1.0  T
   4    -73.9796610 -0.342186E-03  0.355E-02    1.81       1.0  T
   5    -73.9796754 -0.143972E-04  0.133E-02    1.81       1.2  T
   6    -73.9796763 -0.857626E-06  0.814E-03    1.81       1.9  T
   7    -73.9796767 -0.429850E-06  0.386E-03    1.81       3.9  T
   8    -73.9796768 -0.723153E-07  0.154E-03    1.81       9.9  T
   9    -73.9796768 -0.489339E-08  0.717E-04    1.81      21.3  T
  10    -73.9796768 -0.491326E-08  0.211E-04    1.81      72.3  T
     SCC iter.                  ...        0 min,  0.182 sec
     gradient                   ...        0 min,  0.047 sec
 * total energy  :   -73.2404881 Eh     change       -0.1776831E-01 Eh
   gradient norm :     0.1867342 Eh/α   predicted    -0.3197124E-01 (  79.93%)
   displ. norm   :     0.3978497 α      lambda       -0.2949894E-01
   maximum displ.:     0.1890585 α      in ANC's #28, #38, #39, ...

........................................................................
.............................. CYCLE   16 ..............................
........................................................................

 iter      E             dE          RMSdq      gap      omega  full diag
   1    -73.9591014 -0.739591E+02  0.233E-01    1.66       0.0  T
   2    -73.9594281 -0.326713E-03  0.133E-01    1.67       1.0  T
   3    -73.9594216  0.656035E-05  0.667E-02    1.65       1.0  T
   4    -73.9594592 -0.376816E-04  0.228E-02    1.68       1.0  T
   5    -73.9594705 -0.112329E-04  0.751E-03    1.66       2.0  T
   6    -73.9594708 -0.338544E-06  0.446E-03    1.67       3.4  T
   7    -73.9594708 -0.355623E-07  0.191E-03    1.67       8.0  T
   8    -73.9594709 -0.437529E-07  0.731E-04    1.67      20.9  T
   9    -73.9594709 -0.444626E-08  0.349E-04    1.67      43.7  T
     SCC iter.                  ...        0 min,  0.073 sec
     gradient                   ...        0 min,  0.043 sec
 * total energy  :   -73.2571177 Eh     change       -0.1662965E-01 Eh
   gradient norm :     0.1082948 Eh/α   predicted    -0.1708411E-01 (   2.73%)
   displ. norm   :     0.4161339 α      lambda       -0.1528485E-01
   maximum displ.:     0.1632789 α      in ANC's #28, #38, #7, ...

........................................................................
.............................. CYCLE   17 ..............................
........................................................................

 iter      E             dE          RMSdq      gap      omega  full diag
   1    -73.9700316 -0.739700E+02  0.220E-01    1.84       0.0  T
   2    -73.9703961 -0.364537E-03  0.121E-01    1.78       1.0  T
   3    -73.9704141 -0.179653E-04  0.690E-02    1.82       1.0  T
   4    -73.9704451 -0.309664E-04  0.172E-02    1.80       1.0  T
   5    -73.9704506 -0.556886E-05  0.418E-03    1.80       3.6  T
   6    -73.9704508 -0.141903E-06  0.249E-03    1.80       6.1  T
   7    -73.9704508 -0.261306E-07  0.101E-03    1.80      15.1  T
   8    -73.9704508 -0.125681E-07  0.410E-04    1.80      37.2  T
   9    -73.9704508 -0.107664E-08  0.216E-04    1.80      70.6  T
     SCC iter.                  ...        0 min,  0.100 sec
     gradient                   ...        0 min,  0.088 sec
 * total energy  :   -73.2682452 Eh     change       -0.1112753E-01 Eh
   gradient norm :     0.0911617 Eh/α   predicted    -0.8965852E-02 ( -19.43%)
   displ. norm   :     0.6641262 α      lambda       -0.2263748E-01
   maximum displ.:     0.2404496 α      in ANC's #38, #24, #28, ...

........................................................................
.............................. CYCLE   18 ..............................
........................................................................

 iter      E             dE          RMSdq      gap      omega  full diag
   1    -73.9877450 -0.739877E+02  0.305E-01    2.16       0.0  T
   2    -73.9883952 -0.650137E-03  0.171E-01    2.14       1.0  T
   3    -73.9884235 -0.283773E-04  0.880E-02    2.17       1.0  T
   4    -73.9884605 -0.369481E-04  0.174E-02    2.15       1.0  T
   5    -73.9884652 -0.472840E-05  0.751E-03    2.15       2.0  T
   6    -73.9884654 -0.229082E-06  0.456E-03    2.15       3.3  T
   7    -73.9884655 -0.933788E-07  0.149E-03    2.15      10.2  T
   8    -73.9884656 -0.261168E-07  0.502E-04    2.15      30.4  T
   9    -73.9884656 -0.147429E-08  0.223E-04    2.15      68.4  T
     SCC iter.                  ...        0 min,  0.106 sec
     gradient                   ...        0 min,  0.048 sec
 * total energy  :   -73.2811480 Eh     change       -0.1290280E-01 Eh
   gradient norm :     0.0983735 Eh/α   predicted    -0.1631102E-01 (  26.41%)
   displ. norm   :     0.5366175 α      lambda       -0.1757723E-01
   maximum displ.:     0.2079045 α      in ANC's #28, #43, #38, ...

........................................................................
.............................. CYCLE   19 ..............................
........................................................................

 iter      E             dE          RMSdq      gap      omega  full diag
   1    -73.9987323 -0.739987E+02  0.211E-01    2.38       0.0  T
   2    -73.9989258 -0.193496E-03  0.124E-01    2.45       1.0  T
   3    -73.9989331 -0.731560E-05  0.485E-02    2.46       1.0  T
   4    -73.9989506 -0.175257E-04  0.139E-02    2.46       1.1  T
   5    -73.9989527 -0.206108E-05  0.726E-03    2.46       2.1  T
   6    -73.9989530 -0.314548E-06  0.413E-03    2.46       3.7  T
   7    -73.9989531 -0.119873E-06  0.144E-03    2.46      10.6  T
   8    -73.9989531 -0.155651E-07  0.707E-04    2.46      21.6  T
   9    -73.9989531 -0.306009E-08  0.307E-04    2.46      49.7  T
     SCC iter.                  ...        0 min,  0.183 sec
     gradient                   ...        0 min,  0.055 sec
 * total energy  :   -73.2938314 Eh     change       -0.1268337E-01 Eh
   gradient norm :     0.0987058 Eh/α   predicted    -0.1131937E-01 ( -10.75%)
   displ. norm   :     0.4932212 α      lambda       -0.1590808E-01
   maximum displ.:     0.1632464 α      in ANC's #28, #44, #56, ...

........................................................................
.............................. CYCLE   20 ..............................
........................................................................

 iter      E             dE          RMSdq      gap      omega  full diag
   1    -74.0162619 -0.740163E+02  0.211E-01    2.67       0.0  T
   2    -74.0165983 -0.336436E-03  0.115E-01    2.69       1.0  T
   3    -74.0166142 -0.158463E-04  0.503E-02    2.71       1.0  T
   4    -74.0166202 -0.608656E-05  0.219E-02    2.71       1.0  T
   5    -74.0166302 -0.999078E-05  0.820E-03    2.71       1.9  T
   6    -74.0166305 -0.243556E-06  0.435E-03    2.71       3.5  T
   7    -74.0166306 -0.111454E-06  0.176E-03    2.71       8.7  T
   8    -74.0166306 -0.239939E-07  0.780E-04    2.71      19.5  T
   9    -74.0166306 -0.668209E-08  0.296E-04    2.71      51.5  T
     SCC iter.                  ...        0 min,  0.076 sec
     gradient                   ...        0 min,  0.043 sec
 * total energy  :   -73.3062336 Eh     change       -0.1240215E-01 Eh
   gradient norm :     0.1118067 Eh/α   predicted    -0.9889002E-02 ( -20.26%)
   displ. norm   :     0.5981554 α      lambda       -0.2124371E-01
   maximum displ.:     0.2076527 α      in ANC's #39, #44, #43, ...
 * RMSD in coord.:     1.1301300 α      energy gain  -0.2042600E+01 Eh

generating ANC from exact Hessian ...
Using Lindh-Hessian (1995)
 Shifting diagonal of input Hessian by    1.0267175378177678E-002
 Lowest  eigenvalues of input Hessian
    0.010000    0.010112    0.010134    0.000000    0.000000    0.000000
    0.000000    0.000000    0.000000    0.010371    0.010457    0.010640
    0.010671    0.010759    0.010903    0.011103    0.011135    0.011225
 Highest eigenvalues
    1.884524    1.909333    1.951807    2.074883    2.171980    2.377388


........................................................................
.............................. CYCLE   21 ..............................
........................................................................

 iter      E             dE          RMSdq      gap      omega  full diag
   1    -74.0198479 -0.740198E+02  0.285E-01    2.92       0.0  T
   2    -74.0207486 -0.900646E-03  0.146E-01    2.89       1.0  T
   3    -74.0207863 -0.377279E-04  0.760E-02    2.89       1.0  T
   4    -74.0207846  0.166624E-05  0.303E-02    2.89       1.0  T
   5    -74.0208018 -0.171846E-04  0.112E-02    2.89       1.4  T
   6    -74.0208024 -0.593119E-06  0.646E-03    2.89       2.4  T
   7    -74.0208026 -0.218034E-06  0.251E-03    2.89       6.1  T
   8    -74.0208027 -0.238350E-07  0.689E-04    2.89      22.1  T
   9    -74.0208027 -0.317779E-08  0.334E-04    2.89      45.7  T
     SCC iter.                  ...        0 min,  0.073 sec
     gradient                   ...        0 min,  0.052 sec
 * total energy  :   -73.3218002 Eh     change       -0.1556665E-01 Eh
   gradient norm :     0.1304243 Eh/α   predicted     0.0000000E+00 (-100.00%)
   displ. norm   :     0.4550368 α      lambda       -0.3608717E-01
   maximum displ.:     0.1712577 α      in ANC's #64, #37, #27, ...

........................................................................
.............................. CYCLE   22 ..............................
........................................................................

 iter      E             dE          RMSdq      gap      omega  full diag
   1    -74.0501808 -0.740502E+02  0.267E-01    2.83       0.0  T
   2    -74.0504373 -0.256519E-03  0.161E-01    2.88       1.0  T
   3    -74.0504378 -0.553371E-06  0.541E-02    2.91       1.0  T
   4    -74.0504681 -0.302101E-04  0.190E-02    2.91       1.0  T
   5    -74.0504713 -0.321288E-05  0.832E-03    2.91       1.8  T
   6    -74.0504720 -0.763644E-06  0.461E-03    2.91       3.3  T
   7    -74.0504721 -0.901370E-07  0.135E-03    2.91      11.3  T
   8    -74.0504721 -0.666654E-08  0.524E-04    2.91      29.1  T
   9    -74.0504721 -0.189011E-08  0.272E-04    2.91      56.0  T
     SCC iter.                  ...        0 min,  0.167 sec
     gradient                   ...        0 min,  0.045 sec
 * total energy  :   -73.3476380 Eh     change       -0.2583775E-01 Eh
   gradient norm :     0.0837782 Eh/α   predicted    -0.2178451E-01 ( -15.69%)
   displ. norm   :     0.4508959 α      lambda       -0.2486468E-01
   maximum displ.:     0.1882977 α      in ANC's #93, #27, #21, ...

........................................................................
.............................. CYCLE   23 ..............................
........................................................................

 iter      E             dE          RMSdq      gap      omega  full diag
   1    -74.0825734 -0.740826E+02  0.245E-01    2.90       0.0  T
   2    -74.0827107 -0.137338E-03  0.149E-01    2.93       1.0  T
   3    -74.0827250 -0.143112E-04  0.468E-02    2.96       1.0  T
   4    -74.0827410 -0.159439E-04  0.214E-02    2.96       1.0  T
   5    -74.0827439 -0.295699E-05  0.871E-03    2.96       1.8  T
   6    -74.0827445 -0.604309E-06  0.454E-03    2.95       3.4  T
   7    -74.0827446 -0.110437E-06  0.168E-03    2.95       9.1  T
   8    -74.0827447 -0.134147E-07  0.686E-04    2.95      22.2  T
   9    -74.0827447 -0.601501E-08  0.320E-04    2.95      47.7  T
     SCC iter.                  ...        0 min,  0.138 sec
     gradient                   ...        0 min,  0.048 sec
 * total energy  :   -73.3605160 Eh     change       -0.1287807E-01 Eh
   gradient norm :     0.0519585 Eh/α   predicted    -0.1496022E-01 (  16.17%)
   displ. norm   :     0.4390064 α      lambda       -0.8533045E-02
   maximum displ.:     0.2052356 α      in ANC's #27, #21, #22, ...

........................................................................
.............................. CYCLE   24 ..............................
........................................................................

 iter      E             dE          RMSdq      gap      omega  full diag
   1    -74.0802231 -0.740802E+02  0.131E-01    3.00       0.0  T
   2    -74.0802642 -0.410872E-04  0.791E-02    2.99       1.0  T
   3    -74.0802634  0.777339E-06  0.234E-02    2.99       1.0  T
   4    -74.0802706 -0.715000E-05  0.652E-03    2.99       2.3  T
   5    -74.0802708 -0.167416E-06  0.397E-03    2.99       3.8  T
   6    -74.0802708 -0.606585E-07  0.232E-03    2.99       6.6  T
   7    -74.0802709 -0.353341E-07  0.592E-04    2.99      25.8  T
   8    -74.0802709 -0.800355E-09  0.213E-04    2.99      71.5  T
     SCC iter.                  ...        0 min,  0.168 sec
     gradient                   ...        0 min,  0.050 sec
 * total energy  :   -73.3660332 Eh     change       -0.5517212E-02 Eh
   gradient norm :     0.0297977 Eh/α   predicted    -0.5088794E-02 (  -7.77%)
   displ. norm   :     0.5674113 α      lambda       -0.5795746E-02
   maximum displ.:     0.2871545 α      in ANC's #21, #27, #22, ...

........................................................................
.............................. CYCLE   25 ..............................
........................................................................

 iter      E             dE          RMSdq      gap      omega  full diag
   1    -74.0802757 -0.740803E+02  0.141E-01    3.01       0.0  T
   2    -74.0803007 -0.249283E-04  0.833E-02    3.01       1.0  T
   3    -74.0803017 -0.104376E-05  0.152E-02    3.01       1.0  T
   4    -74.0803038 -0.208384E-05  0.598E-03    3.01       2.6  T
   5    -74.0803042 -0.423484E-06  0.316E-03    3.01       4.8  T
   6    -74.0803042 -0.185129E-07  0.153E-03    3.01      10.0  T
   7    -74.0803043 -0.266968E-07  0.522E-04    3.01      29.2  T
   8    -74.0803043 -0.109088E-08  0.207E-04    3.01      73.7  T
     SCC iter.                  ...        0 min,  0.080 sec
     gradient                   ...        0 min,  0.090 sec
 * total energy  :   -73.3704954 Eh     change       -0.4462145E-02 Eh
   gradient norm :     0.0224082 Eh/α   predicted    -0.3830871E-02 ( -14.15%)
   displ. norm   :     0.6086800 α      lambda       -0.4127830E-02
   maximum displ.:     0.3257844 α      in ANC's #21, #27, #22, ...

........................................................................
.............................. CYCLE   26 ..............................
........................................................................

 iter      E             dE          RMSdq      gap      omega  full diag
   1    -74.0871611 -0.740872E+02  0.110E-01    3.02       0.0  T
   2    -74.0871762 -0.151599E-04  0.655E-02    3.03       1.0  T
   3    -74.0871760  0.230286E-06  0.149E-02    3.03       1.0  T
   4    -74.0871784 -0.237195E-05  0.715E-03    3.03       2.1  T
   5    -74.0871786 -0.253287E-06  0.414E-03    3.03       3.7  T
   6    -74.0871787 -0.328327E-07  0.145E-03    3.03      10.5  T
   7    -74.0871787 -0.287706E-07  0.387E-04    3.03      39.4  T
   8    -74.0871787 -0.173678E-08  0.188E-04    3.03      81.1  T
     SCC iter.                  ...        0 min,  0.119 sec
     gradient                   ...        0 min,  0.085 sec
 * total energy  :   -73.3736215 Eh     change       -0.3126076E-02 Eh
   gradient norm :     0.0158891 Eh/α   predicted    -0.2828580E-02 (  -9.52%)
   displ. norm   :     0.6073404 α      lambda       -0.2760546E-02
   maximum displ.:     0.2925418 α      in ANC's #21, #5, #22, ...

........................................................................
.............................. CYCLE   27 ..............................
........................................................................

 iter      E             dE          RMSdq      gap      omega  full diag
   1    -74.0879462 -0.740879E+02  0.111E-01    3.03       0.0  T
   2    -74.0879569 -0.106869E-04  0.659E-02    3.04       1.0  T
   3    -74.0879578 -0.932765E-06  0.123E-02    3.05       1.2  T
   4    -74.0879593 -0.151629E-05  0.746E-03    3.04       2.0  T
   5    -74.0879596 -0.229139E-06  0.408E-03    3.04       3.7  T
   6    -74.0879596 -0.433863E-07  0.103E-03    3.04      14.8  T
   7    -74.0879596 -0.105469E-07  0.326E-04    3.04      46.7  T
   8    -74.0879596 -0.114605E-08  0.176E-04    3.04      86.5  T
     SCC iter.                  ...        0 min,  0.122 sec
     gradient                   ...        0 min,  0.043 sec
 * total energy  :   -73.3756599 Eh     change       -0.2038404E-02 Eh
   gradient norm :     0.0228856 Eh/α   predicted    -0.1889404E-02 (  -7.31%)
   displ. norm   :     0.6147791 α      lambda       -0.2625140E-02
   maximum displ.:     0.2642060 α      in ANC's #21, #22, #5, ...

........................................................................
.............................. CYCLE   28 ..............................
........................................................................

 iter      E             dE          RMSdq      gap      omega  full diag
   1    -74.0972496 -0.740972E+02  0.146E-01    3.04       0.0  T
   2    -74.0972612 -0.116074E-04  0.851E-02    3.05       1.0  T
   3    -74.0972637 -0.255175E-05  0.139E-02    3.06       1.1  T
   4    -74.0972646 -0.897697E-06  0.875E-03    3.06       1.7  T
   5    -74.0972649 -0.276856E-06  0.433E-03    3.06       3.5  T
   6    -74.0972650 -0.759357E-07  0.117E-03    3.05      13.1  T
   7    -74.0972650 -0.823449E-08  0.382E-04    3.06      40.0  T
   8    -74.0972650 -0.121508E-08  0.205E-04    3.06      74.2  T
     SCC iter.                  ...        0 min,  0.100 sec
     gradient                   ...        0 min,  0.085 sec
 * total energy  :   -73.3765692 Eh     change       -0.9093647E-03 Eh
   gradient norm :     0.0274484 Eh/α   predicted    -0.1808663E-02 (  98.89%)
   displ. norm   :     0.3747235 α      lambda       -0.2070325E-02
   maximum displ.:     0.1378212 α      in ANC's #21, #25, #5, ...

........................................................................
.............................. CYCLE   29 ..............................
........................................................................

 iter      E             dE          RMSdq      gap      omega  full diag
   1    -74.0976191 -0.740976E+02  0.142E-01    3.05       0.0  T
   2    -74.0976278 -0.863080E-05  0.833E-02    3.06       1.0  T
   3    -74.0976304 -0.266432E-05  0.105E-02    3.06       1.4  T
   4    -74.0976307 -0.218554E-06  0.668E-03    3.06       2.3  T
   5    -74.0976306  0.181227E-07  0.324E-03    3.06       4.7  T
   6    -74.0976307 -0.911196E-07  0.890E-04    3.06      17.1  T
   7    -74.0976307 -0.104489E-07  0.384E-04    3.06      39.7  T
     SCC iter.                  ...        0 min,  0.097 sec
     gradient                   ...        0 min,  0.048 sec
 * total energy  :   -73.3777298 Eh     change       -0.1160604E-02 Eh
   gradient norm :     0.0182424 Eh/α   predicted    -0.1180523E-02 (   1.72%)
   displ. norm   :     0.3453546 α      lambda       -0.1029086E-02
   maximum displ.:     0.1489927 α      in ANC's #2, #5, #3, ...

........................................................................
.............................. CYCLE   30 ..............................
........................................................................

 iter      E             dE          RMSdq      gap      omega  full diag
   1    -74.0903428 -0.740903E+02  0.898E-02    3.06       0.0  T
   2    -74.0903469 -0.410061E-05  0.534E-02    3.06       1.0  T
   3    -74.0903482 -0.130861E-05  0.569E-03    3.06       2.7  T
   4    -74.0903483 -0.104010E-06  0.353E-03    3.06       4.3  T
   5    -74.0903483 -0.219743E-07  0.211E-03    3.06       7.2  T
   6    -74.0903483 -0.239890E-07  0.515E-04    3.06      29.6  T
   7    -74.0903483 -0.266083E-08  0.234E-04    3.06      65.1  T
     SCC iter.                  ...        0 min,  0.122 sec
     gradient                   ...        0 min,  0.087 sec
 * total energy  :   -73.3782243 Eh     change       -0.4944801E-03 Eh
   gradient norm :     0.0260466 Eh/α   predicted    -0.5759129E-03 (  16.47%)
   displ. norm   :     0.3041892 α      lambda       -0.1082998E-02
   maximum displ.:     0.1541017 α      in ANC's #2, #3, #22, ...

........................................................................
.............................. CYCLE   31 ..............................
........................................................................

 iter      E             dE          RMSdq      gap      omega  full diag
   1    -74.0929277 -0.740929E+02  0.819E-02    3.06       0.0  T
   2    -74.0929306 -0.291755E-05  0.483E-02    3.06       1.0  T
   3    -74.0929311 -0.482361E-06  0.468E-03    3.06       3.3  T
   4    -74.0929312 -0.111287E-06  0.245E-03    3.06       6.2  T
   5    -74.0929313 -0.696274E-07  0.123E-03    3.06      12.4  T
   6    -74.0929313 -0.602033E-08  0.418E-04    3.06      36.5  T
   7    -74.0929313 -0.178288E-08  0.183E-04    3.06      83.1  T
     SCC iter.                  ...        0 min,  0.093 sec
     gradient                   ...        0 min,  0.089 sec
 * total energy  :   -73.3789165 Eh     change       -0.6921677E-03 Eh
   gradient norm :     0.0161749 Eh/α   predicted    -0.5916063E-03 ( -14.53%)
   displ. norm   :     0.4615900 α      lambda       -0.1307213E-02
   maximum displ.:     0.2401191 α      in ANC's #2, #3, #11, ...

........................................................................
.............................. CYCLE   32 ..............................
........................................................................

 iter      E             dE          RMSdq      gap      omega  full diag
   1    -74.0949232 -0.740949E+02  0.119E-01    3.06       0.0  T
   2    -74.0949331 -0.984682E-05  0.693E-02    3.06       1.0  T
   3    -74.0949339 -0.833396E-06  0.783E-03    3.06       1.9  T
   4    -74.0949343 -0.432211E-06  0.365E-03    3.06       4.2  T
   5    -74.0949345 -0.151084E-06  0.210E-03    3.06       7.3  T
   6    -74.0949345 -0.115681E-07  0.988E-04    3.06      15.4  T
   7    -74.0949345 -0.436185E-08  0.357E-04    3.06      42.7  T
     SCC iter.                  ...        0 min,  0.114 sec
     gradient                   ...        0 min,  0.083 sec
 * total energy  :   -73.3795963 Eh     change       -0.6797996E-03 Eh
   gradient norm :     0.0186907 Eh/α   predicted    -0.7928699E-03 (  16.63%)
   displ. norm   :     0.4532256 α      lambda       -0.1271046E-02
   maximum displ.:     0.2511956 α      in ANC's #2, #3, #5, ...

........................................................................
.............................. CYCLE   33 ..............................
........................................................................

 iter      E             dE          RMSdq      gap      omega  full diag
   1    -74.0977786 -0.740978E+02  0.101E-01    3.06       0.0  T
   2    -74.0977858 -0.717610E-05  0.606E-02    3.06       1.0  T
   3    -74.0977873 -0.145395E-05  0.862E-03    3.06       1.8  T
   4    -74.0977877 -0.446796E-06  0.522E-03    3.06       2.9  T
   5    -74.0977878 -0.106346E-06  0.316E-03    3.06       4.8  T
   6    -74.0977878 -0.144368E-07  0.874E-04    3.06      17.5  T
   7    -74.0977878 -0.127130E-07  0.288E-04    3.06      53.0  T
     SCC iter.                  ...        0 min,  0.096 sec
     gradient                   ...        0 min,  0.083 sec
 * total energy  :   -73.3802052 Eh     change       -0.6088959E-03 Eh
   gradient norm :     0.0245185 Eh/α   predicted    -0.7660737E-03 (  25.81%)
   displ. norm   :     0.4251063 α      lambda       -0.1262315E-02
   maximum displ.:     0.2349804 α      in ANC's #2, #3, #5, ...

........................................................................
.............................. CYCLE   34 ..............................
........................................................................

 iter      E             dE          RMSdq      gap      omega  full diag
   1    -74.0940141 -0.740940E+02  0.903E-02    3.06       0.0  T
   2    -74.0940222 -0.807678E-05  0.535E-02    3.06       1.0  T
   3    -74.0940235 -0.129265E-05  0.787E-03    3.06       1.9  T
   4    -74.0940241 -0.558822E-06  0.400E-03    3.06       3.8  T
   5    -74.0940241 -0.601827E-07  0.239E-03    3.06       6.4  T
   6    -74.0940241 -0.269847E-08  0.107E-03    3.06      14.3  T
   7    -74.0940241 -0.889311E-08  0.356E-04    3.06      42.8  T
   8    -74.0940241 -0.160897E-08  0.179E-04    3.06      85.0  T
     SCC iter.                  ...        0 min,  0.116 sec
     gradient                   ...        0 min,  0.047 sec
 * total energy  :   -73.3807095 Eh     change       -0.5042762E-03 Eh
   gradient norm :     0.0260550 Eh/α   predicted    -0.7452204E-03 (  47.78%)
   displ. norm   :     0.3436674 α      lambda       -0.1582367E-02
   maximum displ.:     0.1896151 α      in ANC's #2, #3, #21, ...

........................................................................
.............................. CYCLE   35 ..............................
........................................................................

 iter      E             dE          RMSdq      gap      omega  full diag
   1    -74.0983232 -0.740983E+02  0.109E-01    3.06       0.0  T
   2    -74.0983318 -0.858947E-05  0.642E-02    3.05       1.0  T
   3    -74.0983328 -0.101076E-05  0.864E-03    3.05       1.8  T
   4    -74.0983338 -0.939821E-06  0.406E-03    3.05       3.8  T
   5    -74.0983339 -0.123137E-06  0.235E-03    3.05       6.5  T
   6    -74.0983339 -0.645119E-08  0.101E-03    3.05      15.0  T
   7    -74.0983339 -0.165625E-07  0.354E-04    3.05      43.1  T
   8    -74.0983339 -0.190937E-09  0.151E-04    3.05     101.1  T
     SCC iter.                  ...        0 min,  0.117 sec
     gradient                   ...        0 min,  0.090 sec
 * total energy  :   -73.3811183 Eh     change       -0.4088146E-03 Eh
   gradient norm :     0.0243670 Eh/α   predicted    -0.8846307E-03 ( 116.39%)
   displ. norm   :     0.2911678 α      lambda       -0.1225357E-02
   maximum displ.:     0.1409809 α      in ANC's #15, #2, #16, ...

........................................................................
.............................. CYCLE   36 ..............................
........................................................................

 iter      E             dE          RMSdq      gap      omega  full diag
   1    -74.0984128 -0.740984E+02  0.753E-02    3.05       0.0  T
   2    -74.0984159 -0.305268E-05  0.454E-02    3.05       1.0  T
   3    -74.0984167 -0.815711E-06  0.767E-03    3.05       2.0  T
   4    -74.0984169 -0.182587E-06  0.413E-03    3.05       3.7  T
   5    -74.0984170 -0.863343E-07  0.160E-03    3.05       9.6  T
   6    -74.0984170 -0.263458E-07  0.494E-04    3.05      30.9  T
   7    -74.0984170 -0.278841E-08  0.228E-04    3.05      66.8  T
     SCC iter.                  ...        0 min,  0.111 sec
     gradient                   ...        0 min,  0.060 sec
 * total energy  :   -73.3817491 Eh     change       -0.6308085E-03 Eh
   gradient norm :     0.0151701 Eh/α   predicted    -0.6646232E-03 (   5.36%)
   displ. norm   :     0.3884399 α      lambda       -0.8646839E-03
   maximum displ.:     0.2342317 α      in ANC's #2, #3, #5, ...

........................................................................
.............................. CYCLE   37 ..............................
........................................................................

 iter      E             dE          RMSdq      gap      omega  full diag
   1    -74.0997816 -0.740998E+02  0.968E-02    3.04       0.0  T
   2    -74.0997859 -0.425390E-05  0.569E-02    3.04       1.0  T
   3    -74.0997868 -0.947436E-06  0.643E-03    3.04       2.4  T
   4    -74.0997872 -0.373245E-06  0.374E-03    3.04       4.1  T
   5    -74.0997873 -0.387289E-07  0.222E-03    3.04       6.9  T
   6    -74.0997873  0.145143E-08  0.758E-04    3.04      20.1  T
   7    -74.0997873 -0.807457E-08  0.229E-04    3.04      66.6  T
     SCC iter.                  ...        0 min,  0.124 sec
     gradient                   ...        0 min,  0.052 sec
 * total energy  :   -73.3821347 Eh     change       -0.3856697E-03 Eh
   gradient norm :     0.0221390 Eh/α   predicted    -0.4975781E-03 (  29.02%)
   displ. norm   :     0.4103853 α      lambda       -0.8474073E-03
   maximum displ.:     0.2483377 α      in ANC's #2, #3, #5, ...

........................................................................
.............................. CYCLE   38 ..............................
........................................................................

 iter      E             dE          RMSdq      gap      omega  full diag
   1    -74.0977169 -0.740977E+02  0.728E-02    3.04       0.0  T
   2    -74.0977230 -0.609834E-05  0.433E-02    3.04       1.0  T
   3    -74.0977235 -0.480522E-06  0.623E-03    3.04       2.4  T
   4    -74.0977240 -0.493486E-06  0.327E-03    3.04       4.7  T
   5    -74.0977240 -0.161744E-07  0.203E-03    3.04       7.5  T
   6    -74.0977240 -0.102693E-07  0.819E-04    3.04      18.6  T
   7    -74.0977240 -0.574975E-08  0.256E-04    3.04      59.5  T
     SCC iter.                  ...        0 min,  0.136 sec
     gradient                   ...        0 min,  0.048 sec
 * total energy  :   -73.3826835 Eh     change       -0.5487051E-03 Eh
   gradient norm :     0.0187680 Eh/α   predicted    -0.4950640E-03 (  -9.78%)
   displ. norm   :     0.5054640 α      lambda       -0.1189797E-02
   maximum displ.:     0.3027841 α      in ANC's #2, #3, #5, ...

........................................................................
.............................. CYCLE   39 ..............................
........................................................................

 iter      E             dE          RMSdq      gap      omega  full diag
   1    -74.0967136 -0.740967E+02  0.796E-02    3.04       0.0  T
   2    -74.0967167 -0.305391E-05  0.475E-02    3.04       1.0  T
   3    -74.0967171 -0.429059E-06  0.678E-03    3.04       2.2  T
   4    -74.0967177 -0.559372E-06  0.354E-03    3.04       4.3  T
   5    -74.0967177 -0.330044E-07  0.168E-03    3.04       9.1  T
   6    -74.0967177 -0.127880E-07  0.797E-04    3.04      19.1  T
   7    -74.0967177 -0.628192E-08  0.262E-04    3.04      58.3  T
     SCC iter.                  ...        0 min,  0.102 sec
     gradient                   ...        0 min,  0.065 sec
 * total energy  :   -73.3833164 Eh     change       -0.6329138E-03 Eh
   gradient norm :     0.0195111 Eh/α   predicted    -0.7468919E-03 (  18.01%)
   displ. norm   :     0.4591753 α      lambda       -0.8832970E-03
   maximum displ.:     0.2882360 α      in ANC's #2, #3, #5, ...

........................................................................
.............................. CYCLE   40 ..............................
........................................................................

 iter      E             dE          RMSdq      gap      omega  full diag
   1    -74.0962245 -0.740962E+02  0.674E-02    3.03       0.0  T
   2    -74.0962273 -0.277285E-05  0.401E-02    3.03       1.0  T
   3    -74.0962276 -0.320990E-06  0.494E-03    3.03       3.1  T
   4    -74.0962279 -0.289412E-06  0.268E-03    3.03       5.7  T
   5    -74.0962279 -0.390632E-07  0.168E-03    3.03       9.1  T
   6    -74.0962279 -0.446148E-08  0.749E-04    3.03      20.4  T
   7    -74.0962279 -0.552575E-08  0.181E-04    3.03      84.3  T
     SCC iter.                  ...        0 min,  0.067 sec
     gradient                   ...        0 min,  0.048 sec
 * total energy  :   -73.3839202 Eh     change       -0.6038689E-03 Eh
   gradient norm :     0.0154885 Eh/α   predicted    -0.5347678E-03 ( -11.44%)
   displ. norm   :     0.4795332 α      lambda       -0.1142437E-02
   maximum displ.:     0.2532265 α      in ANC's #2, #3, #21, ...

........................................................................
.............................. CYCLE   41 ..............................
........................................................................

 iter      E             dE          RMSdq      gap      omega  full diag
   1    -74.1099068 -0.741099E+02  0.925E-02    3.03       0.0  T
   2    -74.1099128 -0.601290E-05  0.552E-02    3.03       1.0  T
   3    -74.1099131 -0.313867E-06  0.833E-03    3.03       1.8  T
   4    -74.1099143 -0.118232E-05  0.359E-03    3.03       4.2  T
   5    -74.1099144 -0.725797E-07  0.194E-03    3.03       7.9  T
   6    -74.1099144 -0.182336E-07  0.101E-03    3.03      15.1  T
   7    -74.1099144 -0.593610E-08  0.328E-04    3.03      46.5  T
   8    -74.1099144 -0.547317E-09  0.129E-04    3.03     118.6  T
     SCC iter.                  ...        0 min,  0.063 sec
     gradient                   ...        0 min,  0.060 sec
 * total energy  :   -73.3841515 Eh     change       -0.2312317E-03 Eh
   gradient norm :     0.0248015 Eh/α   predicted    -0.7025741E-03 ( 203.84%)
   displ. norm   :     0.4729537 α      lambda       -0.1458285E-02
   maximum displ.:     0.2821038 α      in ANC's #2, #3, #16, ...

........................................................................
.............................. CYCLE   42 ..............................
........................................................................

 iter      E             dE          RMSdq      gap      omega  full diag
   1    -74.0974670 -0.740975E+02  0.927E-02    3.02       0.0  T
   2    -74.0974766 -0.961772E-05  0.547E-02    3.03       1.0  T
   3    -74.0974768 -0.130583E-06  0.947E-03    3.03       1.6  T
   4    -74.0974779 -0.109262E-05  0.337E-03    3.03       4.5  T
   5    -74.0974780 -0.126416E-06  0.185E-03    3.03       8.2  T
   6    -74.0974780 -0.724225E-08  0.883E-04    3.03      17.3  T
   7    -74.0974780 -0.883902E-08  0.230E-04    3.03      66.3  T
     SCC iter.                  ...        0 min,  0.122 sec
     gradient                   ...        0 min,  0.048 sec
 * total energy  :   -73.3848129 Eh     change       -0.6614692E-03 Eh
   gradient norm :     0.0204912 Eh/α   predicted    -0.8922436E-03 (  34.89%)
   displ. norm   :     0.2551548 α      lambda       -0.1068131E-02
   maximum displ.:     0.1150129 α      in ANC's #2, #3, #23, ...
 * RMSD in coord.:     1.0099621 α      energy gain  -0.7857939E-01 Eh

generating ANC from exact Hessian ...
Using Lindh-Hessian (1995)
 Shifting diagonal of input Hessian by    1.0200481751974912E-002
 Lowest  eigenvalues of input Hessian
    0.000000    0.010000    0.010016    0.000000    0.000000    0.000000
    0.000000    0.000000    0.010349    0.010444    0.010536    0.010669
    0.010766    0.010919    0.010998    0.011057    0.011423    0.011601
 Highest eigenvalues
    1.883135    1.926618    1.968365    2.086137    2.271711    2.311786


........................................................................
.............................. CYCLE   43 ..............................
........................................................................

 iter      E             dE          RMSdq      gap      omega  full diag
   1    -74.0986234 -0.740986E+02  0.914E-02    3.03       0.0  T
   2    -74.0986267 -0.329379E-05  0.547E-02    3.03       1.0  T
   3    -74.0986278 -0.106043E-05  0.752E-03    3.03       2.0  T
   4    -74.0986279 -0.136332E-06  0.465E-03    3.03       3.3  T
   5    -74.0986280 -0.818870E-07  0.256E-03    3.03       6.0  T
   6    -74.0986280 -0.240445E-07  0.683E-04    3.03      22.3  T
   7    -74.0986280 -0.579044E-08  0.222E-04    3.03      68.6  T
     SCC iter.                  ...        0 min,  0.093 sec
     gradient                   ...        0 min,  0.055 sec
 * total energy  :   -73.3849689 Eh     change       -0.1559311E-03 Eh
   gradient norm :     0.0242110 Eh/α   predicted     0.0000000E+00 (-100.00%)
   displ. norm   :     0.1628760 α      lambda       -0.1015608E-02
   maximum displ.:     0.0642425 α      in ANC's #16, #3, #5, ...

........................................................................
.............................. CYCLE   44 ..............................
........................................................................

 iter      E             dE          RMSdq      gap      omega  full diag
   1    -74.1015482 -0.741015E+02  0.531E-02    3.03       0.0  T
   2    -74.1015489 -0.717691E-06  0.317E-02    3.03       1.0  T
   3    -74.1015492 -0.287881E-06  0.420E-03    3.03       3.6  T
   4    -74.1015493 -0.364792E-07  0.250E-03    3.03       6.1  T
   5    -74.1015493 -0.183498E-07  0.843E-04    3.03      18.1  T
   6    -74.1015493 -0.272179E-08  0.286E-04    3.03      53.3  T
     SCC iter.                  ...        0 min,  0.109 sec
     gradient                   ...        0 min,  0.051 sec
 * total energy  :   -73.3857298 Eh     change       -0.7608907E-03 Eh
   gradient norm :     0.0081131 Eh/α   predicted    -0.5212876E-03 ( -31.49%)
   displ. norm   :     0.3405408 α      lambda       -0.9420590E-03
   maximum displ.:     0.1411700 α      in ANC's #16, #3, #5, ...

........................................................................
.............................. CYCLE   45 ..............................
........................................................................

 iter      E             dE          RMSdq      gap      omega  full diag
   1    -74.1032234 -0.741032E+02  0.940E-02    3.03       0.0  T
   2    -74.1032250 -0.160271E-05  0.557E-02    3.04       1.0  T
   3    -74.1032257 -0.648225E-06  0.593E-03    3.04       2.6  T
   4    -74.1032257 -0.627042E-07  0.353E-03    3.04       4.3  T
   5    -74.1032258 -0.416802E-07  0.136E-03    3.04      11.2  T
   6    -74.1032258 -0.942271E-08  0.397E-04    3.04      38.4  T
   7    -74.1032258 -0.292563E-08  0.170E-04    3.04      89.7  T
     SCC iter.                  ...        0 min,  0.121 sec
     gradient                   ...        0 min,  0.088 sec
 * total energy  :   -73.3863207 Eh     change       -0.5909381E-03 Eh
   gradient norm :     0.0125385 Eh/α   predicted    -0.5257271E-03 ( -11.04%)
   displ. norm   :     0.2981794 α      lambda       -0.4921638E-03
   maximum displ.:     0.1169209 α      in ANC's #3, #16, #5, ...

........................................................................
.............................. CYCLE   46 ..............................
........................................................................

 iter      E             dE          RMSdq      gap      omega  full diag
   1    -74.1023237 -0.741023E+02  0.753E-02    3.04       0.0  T
   2    -74.1023245 -0.827823E-06  0.446E-02    3.04       1.0  T
   3    -74.1023248 -0.327832E-06  0.348E-03    3.04       4.4  T
   4    -74.1023249 -0.265332E-07  0.205E-03    3.04       7.4  T
   5    -74.1023249 -0.149290E-07  0.987E-04    3.04      15.5  T
   6    -74.1023249 -0.311482E-08  0.293E-04    3.04      52.0  T
     SCC iter.                  ...        0 min,  0.094 sec
     gradient                   ...        0 min,  0.041 sec
 * total energy  :   -73.3867089 Eh     change       -0.3881686E-03 Eh
   gradient norm :     0.0161720 Eh/α   predicted    -0.2680017E-03 ( -30.96%)
   displ. norm   :     0.4585586 α      lambda       -0.8013328E-03
   maximum displ.:     0.1691192 α      in ANC's #3, #5, #1, ...

........................................................................
.............................. CYCLE   47 ..............................
........................................................................

 iter      E             dE          RMSdq      gap      omega  full diag
   1    -74.1009712 -0.741010E+02  0.111E-01    3.05       0.0  T
   2    -74.1009730 -0.187826E-05  0.660E-02    3.05       1.0  T
   3    -74.1009737 -0.683325E-06  0.455E-03    3.05       3.4  T
   4    -74.1009738 -0.549971E-07  0.257E-03    3.05       5.9  T
   5    -74.1009738 -0.432717E-07  0.130E-03    3.05      11.7  T
   6    -74.1009738 -0.632912E-08  0.382E-04    3.05      39.9  T
   7    -74.1009738 -0.208355E-08  0.140E-04    3.05     109.1  T
     SCC iter.                  ...        0 min,  0.075 sec
     gradient                   ...        0 min,  0.089 sec
 * total energy  :   -73.3873105 Eh     change       -0.6016611E-03 Eh
   gradient norm :     0.0122750 Eh/α   predicted    -0.4849389E-03 ( -19.40%)
   displ. norm   :     0.4512357 α      lambda       -0.6787590E-03
   maximum displ.:     0.1660693 α      in ANC's #1, #3, #5, ...

........................................................................
.............................. CYCLE   48 ..............................
........................................................................

 iter      E             dE          RMSdq      gap      omega  full diag
   1    -74.1014671 -0.741015E+02  0.997E-02    3.05       0.0  T
   2    -74.1014687 -0.160266E-05  0.595E-02    3.05       1.0  T
   3    -74.1014693 -0.581734E-06  0.397E-03    3.05       3.8  T
   4    -74.1014694 -0.542573E-07  0.231E-03    3.05       6.6  T
   5    -74.1014694 -0.299337E-07  0.112E-03    3.05      13.6  T
   6    -74.1014694 -0.477718E-08  0.319E-04    3.05      47.8  T
   7    -74.1014694 -0.162188E-08  0.113E-04    3.05     135.3  T
     SCC iter.                  ...        0 min,  0.084 sec
     gradient                   ...        0 min,  0.056 sec
 * total energy  :   -73.3878313 Eh     change       -0.5208071E-03 Eh
   gradient norm :     0.0086956 Eh/α   predicted    -0.4084824E-03 ( -21.57%)
   displ. norm   :     0.6073328 α      lambda       -0.7703662E-03
   maximum displ.:     0.2173657 α      in ANC's #1, #23, #5, ...

........................................................................
.............................. CYCLE   49 ..............................
........................................................................

 iter      E             dE          RMSdq      gap      omega  full diag
   1    -74.0986931 -0.740987E+02  0.139E-01    3.06       0.0  T
   2    -74.0986961 -0.296895E-05  0.830E-02    3.06       1.0  T
   3    -74.0986972 -0.117878E-05  0.897E-03    3.06       1.7  T
   4    -74.0986973 -0.721013E-07  0.536E-03    3.06       2.8  T
   5    -74.0986974 -0.528884E-07  0.167E-03    3.06       9.1  T
   6    -74.0986974 -0.324871E-07  0.431E-04    3.06      35.4  T
   7    -74.0986974 -0.417725E-08  0.140E-04    3.06     108.6  T
     SCC iter.                  ...        0 min,  0.090 sec
     gradient                   ...        0 min,  0.058 sec
 * total energy  :   -73.3884131 Eh     change       -0.5817651E-03 Eh
   gradient norm :     0.0173290 Eh/α   predicted    -0.5272633E-03 (  -9.37%)
   displ. norm   :     0.5750136 α      lambda       -0.1166933E-02
   maximum displ.:     0.2281907 α      in ANC's #23, #1, #10, ...

........................................................................
.............................. CYCLE   50 ..............................
........................................................................

 iter      E             dE          RMSdq      gap      omega  full diag
   1    -74.1042845 -0.741043E+02  0.135E-01    3.06       0.0  T
   2    -74.1042888 -0.429936E-05  0.804E-02    3.06       1.0  T
   3    -74.1042895 -0.777174E-06  0.630E-03    3.06       2.4  T
   4    -74.1042899 -0.365009E-06  0.376E-03    3.06       4.1  T
   5    -74.1042900 -0.390419E-07  0.186E-03    3.06       8.2  T
   6    -74.1042900 -0.759682E-08  0.618E-04    3.06      24.7  T
   7    -74.1042900 -0.490809E-08  0.209E-04    3.06      72.9  T
     SCC iter.                  ...        0 min,  0.214 sec
     gradient                   ...        0 min,  0.098 sec
[...]

 selected dihedral angles (degree)
 ---------------------------------
C3-C2-C1-C6=  0.14            C3-C2-C1-C11=174.83           H7-C2-C1-C6=181.16            H7-C2-C1-C11=355.85           
C4-C3-C2-C1=359.50            C4-C3-C2-H7=178.47            H8-C3-C2-C1=179.96            H8-C3-C2-H7=358.93            
C5-C4-C3-C2=  0.95            C5-C4-C3-H8=180.50            C21-C4-C3-C2=180.55           C21-C4-C3-H8=  0.09           
C6-C5-C4-C3=358.96            C6-C5-C4-C21=179.38           H9-C5-C4-C3=177.19            H9-C5-C4-C21=357.61           
C5-C6-C1-C2=359.78            C5-C6-C1-C11=184.96           H10-C6-C1-C2=179.63           H10-C6-C1-C11=  4.82          
C1-C6-C5-C4=  0.68            C1-C6-C5-H9=182.38            H10-C6-C5-C4=180.82           H10-C6-C5-H9=  2.52           

 CMA Distance (Angstroems)
 ---------------------------
R(CMA):  3.8296
           -------------------------------------------------
          |                Final Singlepoint                |
           -------------------------------------------------

          ...................................................
          :                      SETUP                      :
          :.................................................:
          :  # basis functions                 106          :
          :  # atomic orbitals                 106          :
          :  # shells                           64          :
          :  # electrons                       122          :
          :  max. iterations                   250          :
          :  Hamiltonian                  GFN2-xTB          :
          :  restarted?                      false          :
          :  GBSA solvation                   true          :
          :  PC potential                    false          :
          :  electronic temp.          300.0000000     K    :
          :  accuracy                    1.0000000          :
          :  -> integral cutoff          0.2500000E+02      :
          :  -> integral neglect         0.1000000E-07      :
          :  -> SCF convergence          0.1000000E-05 Eh   :
          :  -> wf. convergence          0.1000000E-03 e    :
          :  Broyden damping             0.4000000          :
          :  net charge                          2          :
          :  unpaired electrons                  0          :
          ...................................................

 iter      E             dE          RMSdq      gap      omega  full diag
   1    -74.1255445 -0.741255E+02  0.108E-04    3.26       0.0  T
   2    -74.1255445 -0.181188E-10  0.721E-05    3.26     211.5  T
   3    -74.1255445  0.103455E-10  0.384E-05    3.26     396.7  T

   *** convergence criteria satisfied after 3 iterations ***

         #    Occupation            Energy/Eh            Energy/eV
      -------------------------------------------------------------
         1        2.0000           -0.7628676             -20.7587
       ...           ...                  ...                  ...
        55        2.0000           -0.4515948             -12.2885
        56        2.0000           -0.4495604             -12.2332
        57        2.0000           -0.4467171             -12.1558
        58        2.0000           -0.4455267             -12.1234
        59        2.0000           -0.4417371             -12.0203
        60        2.0000           -0.4385304             -11.9330
        61        2.0000           -0.4238981             -11.5349 (HOMO)
        62                         -0.3042516              -8.2791 (LUMO)
        63                         -0.2565239              -6.9804
        64                         -0.2534080              -6.8956
        65                         -0.2111422              -5.7455
        66                         -0.1784436              -4.8557
       ...                                ...                  ...
       106                          1.1908323              32.4042
      -------------------------------------------------------------
                  HL-Gap            0.1196465 Eh            3.2557 eV
             Fermi-level           -0.3640749 Eh           -9.9070 eV

 SCC (total)                   0 d,  0 h,  0 min,  0.246 sec
 SCC setup                      ...        0 min,  0.010 sec (  3.936%)
 Dispersion                     ...        0 min,  0.009 sec (  3.677%)
 classical contributions        ...        0 min,  0.008 sec (  3.308%)
 integral evaluation            ...        0 min,  0.025 sec ( 10.110%)
 iterations                     ...        0 min,  0.092 sec ( 37.200%)
 molecular gradient             ...        0 min,  0.089 sec ( 35.975%)
 printout                       ...        0 min,  0.014 sec (  5.772%)

         :::::::::::::::::::::::::::::::::::::::::::::::::::::
         ::                     SUMMARY                     ::
         :::::::::::::::::::::::::::::::::::::::::::::::::::::
         :: total energy             -73.403067945948 Eh    ::
         :: total w/o Gsasa/hb       -73.342826795017 Eh    ::
         :: gradient norm              0.000341103753 Eh/a0 ::
         :: HOMO-LUMO gap              3.255747442491 eV    ::
         ::.................................................::
         :: SCC energy               -74.125338435210 Eh    ::
         :: -> isotropic ES            0.577684992715 Eh    ::
         :: -> anisotropic ES         -0.022813663922 Eh    ::
         :: -> anisotropic XC          0.009915576041 Eh    ::
         :: -> dispersion             -0.036469020887 Eh    ::
         :: -> Gsolv                  -0.352276028879 Eh    ::
         ::    -> Gelec               -0.292034877948 Eh    ::
         ::    -> Gsasa                0.002658773228 Eh    ::
         ::    -> Ghb                 -0.063980683857 Eh    ::
         ::    -> Gshift               0.001080759698 Eh    ::
         :: repulsion energy           0.722270489262 Eh    ::
         :: add. restraining           0.000000000000 Eh    ::
         :: total charge               2.000000000000 e     ::
         :::::::::::::::::::::::::::::::::::::::::::::::::::::

           -------------------------------------------------
          |                Property Printout                |
           -------------------------------------------------

    * Orbital Energies and Occupations

         #    Occupation            Energy/Eh            Energy/eV
      -------------------------------------------------------------
         1        2.0000           -0.7628676             -20.7587
       ...           ...                  ...                  ...
        49        2.0000           -0.4698666             -12.7857
        50        2.0000           -0.4660694             -12.6824
        51        2.0000           -0.4619824             -12.5712
        52        2.0000           -0.4590727             -12.4920
        53        2.0000           -0.4552687             -12.3885
        54        2.0000           -0.4546408             -12.3714
        55        2.0000           -0.4515948             -12.2885
        56        2.0000           -0.4495604             -12.2332
        57        2.0000           -0.4467171             -12.1558
        58        2.0000           -0.4455267             -12.1234
        59        2.0000           -0.4417371             -12.0203
        60        2.0000           -0.4385304             -11.9330
        61        2.0000           -0.4238981             -11.5349 (HOMO)
        62                         -0.3042516              -8.2791 (LUMO)
        63                         -0.2565239              -6.9804
        64                         -0.2534080              -6.8956
        65                         -0.2111422              -5.7455
        66                         -0.1784436              -4.8557
        67                         -0.1184335              -3.2227
        68                         -0.0123549              -0.3362
        69                          0.0279863               0.7615
        70                          0.0313533               0.8532
        71                          0.0454685               1.2373
        72                          0.0615135               1.6739
       ...                                ...                  ...
       106                          1.1908323              32.4042
      -------------------------------------------------------------
                  HL-Gap            0.1196465 Eh            3.2557 eV
             Fermi-level           -0.3640749 Eh           -9.9070 eV

     #   Z          covCN         q      C6AA      α(0)
     1   6 C        2.971    -0.011    28.285     8.724
     2   6 C        2.918    -0.023    28.571     8.765
     3   6 C        2.923    -0.022    28.551     8.763
     4   6 C        2.970    -0.014    28.355     8.734
     5   6 C        2.919    -0.031    28.764     8.795
     6   6 C        2.921    -0.019    28.474     8.751
     7   1 H        0.926     0.061     2.191     2.315
     8   1 H        0.926     0.104     1.752     2.070
     9   1 H        0.926     0.100     1.783     2.088
    10   1 H        0.926     0.059     2.213     2.327
    11   6 C        2.707     0.364    20.825     7.470
    12   8 O        0.857    -0.478    23.314     6.474
    13   8 O        1.703    -0.271    18.501     5.807
    14   6 C        3.683     0.067    19.649     6.347
    15   6 C        3.751    -0.135    23.150     6.862
    16   1 H        0.924     0.071     2.076     2.253
    17   1 H        0.924     0.079     1.986     2.204
    18   1 H        0.925     0.080     1.981     2.201
    19   1 H        0.925     0.063     2.161     2.299
    20   1 H        0.925     0.064     2.147     2.291
    21   6 C        2.754     0.362    20.854     7.478
    22   8 O        1.334    -0.347    20.260     6.055
    23   8 O        1.705    -0.313    19.228     5.920
    24   1 H        0.804     0.418     0.453     1.057
    25  48 Cd       4.173     0.413   191.867    26.588
    26   8 O        2.202    -0.557    24.104     6.631
    27   1 H        0.805     0.382     0.518     1.131
    28   1 H        0.805     0.392     0.500     1.111
    29   8 O        2.186    -0.561    24.187     6.642
    30   1 H        0.805     0.391     0.502     1.113
    31   1 H        0.805     0.390     0.504     1.115
    32   8 O        2.264    -0.542    23.764     6.584
    33   1 H        0.805     0.392     0.499     1.109
    34   1 H        0.805     0.399     0.485     1.094
    35   8 O        2.292    -0.533    23.549     6.554
    36   1 H        0.805     0.398     0.488     1.097
    37   1 H        0.805     0.403     0.479     1.087
    38   8 O        2.146    -0.566    24.312     6.659
    39   1 H        0.805     0.385     0.513     1.125
    40   1 H        0.805     0.382     0.519     1.131
    41   8 O        2.157    -0.563    24.222     6.647
    42   1 H        0.805     0.375     0.532     1.146
    43   1 H        0.804     0.392     0.500     1.110

 Mol. C6AA /au·bohr⁶  :      17679.012117
 Mol. C8AA /au·bohr⁸  :     476350.846203
 Mol. α(0) /au        :        205.724307


Wiberg/Mayer (AO) data.
largest (>0.10) Wiberg bond orders for each atom

 ---------------------------------------------------------------------------
     #   Z sym  total        # sym  WBO       # sym  WBO       # sym  WBO
 ---------------------------------------------------------------------------
     1   6 C    3.984 --     6 C    1.392     2 C    1.390    11 C    0.967
     2   6 C    3.987 --     3 C    1.456     1 C    1.390     7 H    0.966
                             5 C    0.105
     3   6 C    3.981 --     2 C    1.456     4 C    1.379     8 H    0.958
                             6 C    0.106
     4   6 C    3.987 --     5 C    1.381     3 C    1.379    21 C    1.014
     5   6 C    3.983 --     6 C    1.456     4 C    1.381     9 H    0.954
                             2 C    0.105
     6   6 C    3.987 --     5 C    1.456     1 C    1.392    10 H    0.967
                             3 C    0.106
     7   1 H    0.996 --     2 C    0.966
     8   1 H    0.989 --     3 C    0.958
     9   1 H    0.990 --     5 C    0.954
    10   1 H    0.996 --     6 C    0.967
    11   6 C    3.896 --    12 O    1.680    13 O    1.175     1 C    0.967
    12   8 O    1.981 --    11 C    1.680    13 O    0.167
    13   8 O    2.332 --    11 C    1.175    14 C    0.911    12 O    0.167
    14   6 C    3.899 --    15 C    1.016    16 H    0.965    17 H    0.965
                            13 O    0.911
    15   6 C    3.985 --    14 C    1.016    19 H    0.985    20 H    0.984
                            18 H    0.978
    16   1 H    0.995 --    14 C    0.965
    17   1 H    0.994 --    14 C    0.965
    18   1 H    0.992 --    15 C    0.978
    19   1 H    0.996 --    15 C    0.985
    20   1 H    0.996 --    15 C    0.984
    21   6 C    3.923 --    22 O    1.634    23 O    1.206     4 C    1.014
    22   8 O    2.207 --    21 C    1.634    25 Cd   0.217    23 O    0.167
    23   8 O    2.334 --    21 C    1.206    24 H    0.795    22 O    0.167
    24   1 H    0.825 --    23 O    0.795
    25  48 Cd   2.202 --    35 O    0.345    32 O    0.322    29 O    0.287
                            26 O    0.285    41 O    0.272    38 O    0.266
                            22 O    0.217
    26   8 O    2.068 --    27 H    0.844    28 H    0.837    25 Cd   0.285
    27   1 H    0.854 --    26 O    0.844
    28   1 H    0.847 --    26 O    0.837
    29   8 O    2.069 --    31 H    0.839    30 H    0.838    25 Cd   0.287
    30   1 H    0.847 --    29 O    0.838
    31   1 H    0.848 --    29 O    0.839
    32   8 O    2.105 --    33 H    0.836    34 H    0.830    25 Cd   0.322
    33   1 H    0.846 --    32 O    0.836
    34   1 H    0.840 --    32 O    0.830
    35   8 O    2.127 --    36 H    0.831    37 H    0.827    25 Cd   0.345
    36   1 H    0.841 --    35 O    0.831
    37   1 H    0.838 --    35 O    0.827
    38   8 O    2.049 --    40 H    0.846    39 H    0.841    25 Cd   0.266
    39   1 H    0.852 --    38 O    0.841
    40   1 H    0.854 --    38 O    0.846
    41   8 O    2.058 --    42 H    0.851    43 H    0.837    25 Cd   0.272
    42   1 H    0.859 --    41 O    0.851
    43   1 H    0.846 --    41 O    0.837
 ---------------------------------------------------------------------------

Topologies differ in total number of bonds
Writing topology from bond orders to xtbtopo.mol

molecular dipole:
                 x           y           z       tot (Debye)
 q only:      -26.738      -2.481       4.056
   full:      -26.343      -2.308       3.983      67.972
molecular quadrupole (traceless):
                xx          xy          yy          xz          yz          zz
 q only:      335.502      78.573    -158.693     -40.261     -11.589    -176.809
  q+dip:      332.429      73.086    -157.864     -40.204     -15.017    -174.565
   full:      330.401      73.765    -158.114     -39.253     -12.734    -172.287

           -------------------------------------------------
          |                Geometry Summary                 |
           -------------------------------------------------

      molecular mass/u    :      414.6876625
   center of mass at/Å    :       -4.1470118      -0.6835494       0.2352778
  moments of inertia/u·Å² :        0.8087163E+03   0.6406555E+04   0.6554991E+04
rotational constants/cm⁻¹ :        0.2084493E-01   0.2631310E-02   0.2571725E-02

 * 36 selected distances

     #   Z          #   Z                                           value/Å
     1   6 C        2   6 C                                       1.3934980
     2   6 C        3   6 C                                       1.3806760
     3   6 C        4   6 C                                       1.3953252
     4   6 C        5   6 C                                       1.3959127
     1   6 C        6   6 C                                       1.3925177
     5   6 C        6   6 C                                       1.3817845
     2   6 C        7   1 H                                       1.0786972
     3   6 C        8   1 H                                       1.0775641
     5   6 C        9   1 H                                       1.0784584
     6   6 C       10   1 H                                       1.0788942
    11   6 C       12   8 O                                       1.2164384
    11   6 C       13   8 O                                       1.3223736
    13   8 O       14   6 C                                       1.4374639
    14   6 C       15   6 C                                       1.5202070
    14   6 C       16   1 H                                       1.0925771
    14   6 C       17   1 H                                       1.0934627
    15   6 C       18   1 H                                       1.0850635
    15   6 C       19   1 H                                       1.0865483
    15   6 C       20   1 H                                       1.0861601
    21   6 C       22   8 O                                       1.2203014
    21   6 C       23   8 O                                       1.3143128
    23   8 O       24   1 H                                       0.9738762
    26   8 O       27   1 H                                       0.9656494
    26   8 O       28   1 H                                       0.9679578
    29   8 O       30   1 H                                       0.9670192
    29   8 O       31   1 H                                       0.9666676
    25  48 Cd      32   8 O                                       2.2066598 (max)
    32   8 O       33   1 H                                       0.9673428
Note: The following floating-point exceptions are signalling: IEEE_UNDERFLOW_FLAG IEEE_DENORMAL
normal termination of xtb
    32   8 O       34   1 H                                       0.9678832
    25  48 Cd      35   8 O                                       2.1577397
    35   8 O       36   1 H                                       0.9670976
    35   8 O       37   1 H                                       0.9684496
    38   8 O       39   1 H                                       0.9663690
    38   8 O       40   1 H                                       0.9652238
    41   8 O       42   1 H                                       0.9652127 (min)
    41   8 O       43   1 H                                       0.9686123

 * 5 distinct bonds (by element types)

   Z      Z             #   av. dist./Å        max./Å        min./Å
   1 H    6 C           9     1.0841584     1.0934627     1.0775641
   6 C    6 C           7     1.4085602     1.5202070     1.3806760
   1 H    8 O          13     0.9674893     0.9738762     0.9652127
   6 C    8 O           5     1.3021780     1.4374639     1.2164384
   8 O   48 Cd          2     2.1821997     2.2066598     2.1577397


optimized geometry written to: xtbopt.xyz


           -------------------------------------------------
          | TOTAL ENERGY              -73.403067945948 Eh   |
          | GRADIENT NORM               0.000341103753 Eh/α |
          | HOMO-LUMO GAP               3.255747442491 eV   |
           -------------------------------------------------

------------------------------------------------------------------------
 * finished run on 2026/05/26 at 02:24:53.262     
------------------------------------------------------------------------
 total:
 * wall-time:     0 d,  0 h,  0 min, 31.655 sec
 *  cpu-time:     0 d,  0 h,  0 min, 51.699 sec
 * ratio c/w:     1.633 speedup
 SCF:
 * wall-time:     0 d,  0 h,  0 min,  0.880 sec
 *  cpu-time:     0 d,  0 h,  0 min,  1.117 sec
 * ratio c/w:     1.268 speedup
 ANC optimizer:
 * wall-time:     0 d,  0 h,  0 min, 30.681 sec
 *  cpu-time:     0 d,  0 h,  0 min, 50.485 sec
 * ratio c/w:     1.645 speedup

