      -----------------------------------------------------------      
     |                   =====================                   |     
     |                           x T B                           |     
     |                   =====================                   |     
     |                         S. Grimme                         |     
     |          Mulliken Center for Theoretical Chemistry        |     
     |                    University of Bonn                     |     
      -----------------------------------------------------------      

   * xtb version 6.7.1 (edcfbbe) compiled by 'conda@c0858423619e' on 2025-09-04

   xtb is free software: you can redistribute it and/or modify it under
   the terms of the GNU Lesser General Public License as published by
   the Free Software Foundation, either version 3 of the License, or
   (at your option) any later version.
   
   xtb is distributed in the hope that it will be useful,
   but WITHOUT ANY WARRANTY; without even the implied warranty of
   MERCHANTABILITY or FITNESS FOR A PARTICULAR PURPOSE.  See the
   GNU Lesser General Public License for more details.
   
   Cite this work as:
   * C. Bannwarth, E. Caldeweyher, S. Ehlert, A. Hansen, P. Pracht,
     J. Seibert, S. Spicher, S. Grimme, WIREs Comput. Mol. Sci., 2020, 11,
     e01493. DOI: 10.1002/wcms.1493
   
   for GFN2-xTB:
   * C. Bannwarth, S. Ehlert and S. Grimme., J. Chem. Theory Comput., 2019,
     15, 1652-1671. DOI: 10.1021/acs.jctc.8b01176
   for GFN1-xTB:
   * S. Grimme, C. Bannwarth, P. Shushkov, J. Chem. Theory Comput., 2017,
     13, 1989-2009. DOI: 10.1021/acs.jctc.7b00118
   for GFN0-xTB:
   * P. Pracht, E. Caldeweyher, S. Ehlert, S. Grimme, ChemRxiv, 2019, preprint.
     DOI: 10.26434/chemrxiv.8326202.v1
   for GFN-FF:
   * S. Spicher and S. Grimme, Angew. Chem. Int. Ed., 2020, 59, 15665-15673.
     DOI: 10.1002/anie.202004239
   
   for ALPB and GBSA implicit solvation:
   * S. Ehlert, M. Stahn, S. Spicher, S. Grimme, J. Chem. Theory Comput.,
     2021, 17, 4250-4261. DOI: 10.1021/acs.jctc.1c00471
   
   for ddCOSMO and CPCM-X implicit solvation:
   * M. Stahn, S. Ehlert, S. Grimme, J. Phys. Chem. A,
     2023, XX, XXXX-XXXX. DOI: 10.1021/acs.jpca.3c04382
   
   for DFT-D4:
   * E. Caldeweyher, C. Bannwarth and S. Grimme, J. Chem. Phys., 2017,
     147, 034112. DOI: 10.1063/1.4993215
   * E. Caldeweyher, S. Ehlert, A. Hansen, H. Neugebauer, S. Spicher,
     C. Bannwarth and S. Grimme, J. Chem. Phys., 2019, 150, 154122.
     DOI: 10.1063/1.5090222
   * E. Caldeweyher, J.-M. Mewes, S. Ehlert and S. Grimme, Phys. Chem. Chem. Phys.
     2020, 22, 8499-8512. DOI: 10.1039/D0CP00502A
   
   for sTDA-xTB:
   * S. Grimme and C. Bannwarth, J. Chem. Phys., 2016, 145, 054103.
     DOI: 10.1063/1.4959605
   
   in the mass-spec context:
   * V. Asgeirsson, C. Bauer and S. Grimme, Chem. Sci., 2017, 8, 4879.
     DOI: 10.1039/c7sc00601b
   * J. Koopman and S. Grimme, ACS Omega 2019, 4, 12, 15120-15133.
     DOI: 10.1021/acsomega.9b02011
   
   for metadynamics refer to:
   * S. Grimme, J. Chem. Theory Comput., 2019, 155, 2847-2862
     DOI: 10.1021/acs.jctc.9b00143
   
   for SPH calculations refer to:
   * S. Spicher and S. Grimme, J. Chem. Theory Comput., 2021, 17, 1701-1714
     DOI: 10.1021/acs.jctc.0c01306
   
   for ONIOM refer to:
   * C. Plett, A. Katbashev, S. Ehlert, S. Grimme, M. Bursch,
     Phys. Chem. Chem. Phys., 2023, 25, 17860-17868. DOI: 10.1039/D3CP02178E
   
   for DIPRO refer to:
   * J. Kohn, N. Gildemeister, S. Grimme, D. Fazzi, A. Hansen,
     J. Chem. Phys., 2023, just accepted.
   
   for PTB refer to:
   * S. Grimme, M. Mueller, A. Hansen, J. Chem. Phys., 2023, 158, 124111.
     DOI: 10.1063/5.0137838
   
   with help from (in alphabetical order)
   P. Atkinson, C. Bannwarth, F. Bohle, G. Brandenburg, E. Caldeweyher
   M. Checinski, S. Dohm, S. Ehlert, S. Ehrlich, I. Gerasimov, C. Hölzer
   A. Katbashev, J. Kohn, J. Koopman, C. Lavigne, S. Lehtola, F. März, M. Müller,
   F. Musil, H. Neugebauer, J. Pisarek, C. Plett, P. Pracht, F. Pultar,
   J. Seibert, P. Shushkov, S. Spicher, M. Stahn, M. Steiner, T. Strunk,
   J. Stückrath, T. Rose, and J. Unsleber
   
 * started run on 2026/05/26 at 02:25:48.318     
   ID    Z sym.   atoms
    1    6 C      1-6, 11, 14, 15, 21
    2    1 H      7-10, 16-20, 24, 27, 28, 30, 31, 33, 34, 36, 37, 39, 40,
                  42, 43
    3    8 O      12, 13, 22, 23, 26, 29, 32, 35, 38, 41
    4   48 Cd     25

           -------------------------------------------------
          |                Calculation Setup                |
           -------------------------------------------------

          program call               : /content/xtb_env/bin/xtb input.xyz --gfn 2 --opt tight --alpb water --chrg 2 --uhf 0
          hostname                   : 01035569fb61
          coordinate file            : input.xyz
          omp threads                :                     2


molecular fragmentation (1/2 indicates fragments):
1111111111111111111111112222222222222222222
# atoms in fragment 1/2:    24    19
 fragment masses (1/2) :      194.18      220.50
CMA distance (Bohr)    :  17.062
constraining FC (au)   :  0.0500

           -------------------------------------------------
          |                 G F N 2 - x T B                 |
           -------------------------------------------------

        Reference                      10.1021/acs.jctc.8b01176
      * Hamiltonian:
        H0-scaling (s, p, d)           1.850000    2.230000    2.230000
        zeta-weighting                 0.500000
      * Dispersion:
        s8                             2.700000
        a1                             0.520000
        a2                             5.000000
        s9                             5.000000
      * Repulsion:
        kExp                           1.500000    1.000000
        rExp                           1.000000
      * Coulomb:
        alpha                          2.000000
        third order                    shell-resolved
        anisotropic                    true
        a3                             3.000000
        a5                             4.000000
        cn-shift                       1.200000
        cn-exp                         4.000000
        max-rad                        5.000000

      * Solvation model:               ALPB
        Solvent                        water
        Parameter file                 internal GFN2-xTB/ALPB
        Dielectric constant                8.0200E+01
        Reference state                gsolv [1 M gas/solution]
        Free energy shift                  1.0808E-03 Eh       6.7819E-01 kcal/mol
        Temperature                        2.9815E+02 K
        Density                            1.0000E+00 kg/L
        Solvent mass                       1.8000E+01 g/mol
        Interaction kernel             P16
        Born radius scaling (c1)           1.4744E+00
        Born radii integrator          GBOBC
        Born offset                        0.0000E+00 a0       0.0000E+00 AA
        H-bond correction              true
        Ion screening                  false
        Surface tension                    1.0000E-05 Eh       1.5569E+01 dyn/cm
        Grid points                               230 per atom

          ...................................................
          :                      SETUP                      :
          :.................................................:
          :  # basis functions                 106          :
          :  # atomic orbitals                 106          :
          :  # shells                           64          :
          :  # electrons                       122          :
          :  max. iterations                   250          :
          :  Hamiltonian                  GFN2-xTB          :
          :  restarted?                      false          :
          :  GBSA solvation                   true          :
          :  PC potential                    false          :
          :  electronic temp.          300.0000000     K    :
          :  accuracy                    1.0000000          :
          :  -> integral cutoff          0.2500000E+02      :
          :  -> integral neglect         0.1000000E-07      :
          :  -> SCF convergence          0.1000000E-05 Eh   :
          :  -> wf. convergence          0.1000000E-03 e    :
          :  Broyden damping             0.4000000          :
          :  net charge                          2          :
          :  unpaired electrons                  0          :
          ...................................................

 iter      E             dE          RMSdq      gap      omega  full diag
   1    -73.1603982 -0.731604E+02  0.605E+00    0.12       0.0  T
   2    -72.7938976  0.366501E+00  0.428E+00    0.85       1.0  T
   3    -73.1982712 -0.404374E+00  0.331E+00    1.12       1.0  T
   4    -73.0544978  0.143773E+00  0.240E+00    0.01       1.0  T
   5    -73.2681704 -0.213673E+00  0.178E+00    1.60       1.0  T
   6    -73.2968184 -0.286480E-01  0.132E+00    1.11       1.0  T
   7    -73.3075606 -0.107422E-01  0.101E+00    0.66       1.0  T
   8    -72.8359442  0.471616E+00  0.310E+00    0.04       1.0  T
   9    -73.3250391 -0.489095E+00  0.200E-01    0.11       1.0  T
  10    -73.3239304  0.110870E-02  0.264E-01    0.12       1.0  T
  11    -73.3085689  0.153615E-01  0.695E-01    0.04       1.0  T
  12    -73.3243151 -0.157462E-01  0.230E-01    0.12       1.0  T
  13    -73.3239203  0.394776E-03  0.239E-01    0.07       1.0  T
  14    -73.3252814 -0.136113E-02  0.139E-01    0.08       1.0  T
  15    -73.3252934 -0.119331E-04  0.140E-01    0.08       1.0  T
  16    -73.3259018 -0.608457E-03  0.622E-02    0.09       1.0  T
  17    -73.3259496 -0.478020E-04  0.560E-02    0.09       1.0  T
  18    -73.3260569 -0.107284E-03  0.539E-02    0.09       1.0  T
  19    -73.3261150 -0.581112E-04  0.340E-02    0.09       1.0  T
  20    -73.3261480 -0.330207E-04  0.154E-02    0.09       1.0  T
  21    -73.3261672 -0.191173E-04  0.343E-03    0.09       4.4  T
  22    -73.3261678 -0.618864E-06  0.207E-03    0.09       7.4  T
  23    -73.3261679 -0.764154E-07  0.119E-03    0.09      12.8  T
  24    -73.3261679 -0.530106E-07  0.694E-04    0.09      22.0  T
  25    -73.3261679 -0.338585E-07  0.910E-05    0.09     167.6  T

   *** convergence criteria satisfied after 25 iterations ***

         #    Occupation            Energy/Eh            Energy/eV
      -------------------------------------------------------------
         1        2.0000           -0.7554705             -20.5574
       ...           ...                  ...                  ...
        55        2.0000           -0.4216190             -11.4728
        56        2.0000           -0.4134105             -11.2495
        57        2.0000           -0.4004238             -10.8961
        58        2.0000           -0.3903031             -10.6207
        59        2.0000           -0.3322360              -9.0406
        60        2.0000           -0.3259802              -8.8704
        61        1.7020           -0.2836455              -7.7184 (HOMO)
        62        0.2679           -0.2802165              -7.6251 (LUMO)
        63        0.0301           -0.2780177              -7.5652
        64                         -0.2359403              -6.4203
        65                         -0.2187850              -5.9534
        66                         -0.1559196              -4.2428
       ...                                ...                  ...
       106                          0.9376684              25.5153
      -------------------------------------------------------------
                  HL-Gap            0.0034289 Eh            0.0933 eV
             Fermi-level           -0.2819899 Eh           -7.6733 eV

 SCC (total)                   0 d,  0 h,  0 min,  0.312 sec
 SCC setup                      ...        0 min,  0.002 sec (  0.596%)
 Dispersion                     ...        0 min,  0.001 sec (  0.239%)
 classical contributions        ...        0 min,  0.002 sec (  0.584%)
 integral evaluation            ...        0 min,  0.012 sec (  3.772%)
 iterations                     ...        0 min,  0.250 sec ( 80.160%)
 molecular gradient             ...        0 min,  0.045 sec ( 14.474%)
 printout                       ...        0 min,  0.001 sec (  0.165%)

         :::::::::::::::::::::::::::::::::::::::::::::::::::::
         ::                     SUMMARY                     ::
         :::::::::::::::::::::::::::::::::::::::::::::::::::::
         :: total energy             -72.448727290224 Eh    ::
         :: total w/o Gsasa/hb       -72.363359589869 Eh    ::
         :: gradient norm              0.617241129743 Eh/a0 ::
         :: HOMO-LUMO gap              0.093305994567 eV    ::
         ::.................................................::
         :: SCC energy               -73.326245028021 Eh    ::
         :: -> isotropic ES            0.653217024973 Eh    ::
         :: -> anisotropic ES         -0.017349387014 Eh    ::
         :: -> anisotropic XC          0.009245303579 Eh    ::
         :: -> dispersion             -0.031423501006 Eh    ::
         :: -> Gsolv                  -0.399512168416 Eh    ::
         ::    -> Gelec               -0.314144468060 Eh    ::
         ::    -> Gsasa                0.002228764940 Eh    ::
         ::    -> Ghb                 -0.088677224994 Eh    ::
         ::    -> Gshift               0.001080759698 Eh    ::
         :: repulsion energy           0.877517737797 Eh    ::
         :: add. restraining           0.000000000000 Eh    ::
         :: total charge               1.999999999896 e     ::
         :::::::::::::::::::::::::::::::::::::::::::::::::::::

      ----------------------------------------------------------- 
     |                   =====================                   |
     |                        A N C O P T                        |
     |                   =====================                   |
     |               Approximate Normal Coordinate               |
     |                Rational Function Optimizer                |
      ----------------------------------------------------------- 
      ----------------------------------------------------------- 
     |                   =====================                   |
     |                        A N C O P T                        |
     |                   =====================                   |
     |               Approximate Normal Coordinate               |
     |                Rational Function Optimizer                |
      ----------------------------------------------------------- 

          ...................................................
          :                      SETUP                      :
          :.................................................:
          :   optimization level             tight          :
          :   max. optcycles                   215          :
          :   ANC micro-cycles                  20          :
          :   degrees of freedom               123          :
          :.................................................:
          :   RF solver                   davidson          :
          :   write xtbopt.log                true          :
          :   linear?                        false          :
          :   energy convergence         0.1000000E-05 Eh   :
          :   grad. convergence          0.8000000E-03 Eh/α :
          :   maxmium RF displ.          1.0000000          :
          :   Hlow (freq-cutoff)         0.1000000E-01      :
          :   Hmax (freq-cutoff)         5.0000000          :
          :   S6 in model hess.         20.0000000          :
          ...................................................

generating ANC from exact Hessian ...
Using Lindh-Hessian (1995)
 Shifting diagonal of input Hessian by    1.0153224168570240E-002
 Lowest  eigenvalues of input Hessian
    0.010000    0.010018    0.010068    0.010072    0.010092    0.010101
    0.010114    0.000000    0.000000    0.000000    0.000000    0.000000
    0.000000    0.010184    0.010203    0.010245    0.010278    0.010314
 Highest eigenvalues
    2.359458    2.489105    2.501083    2.538899    2.609065    2.615020


........................................................................
.............................. CYCLE    1 ..............................
........................................................................

 iter      E             dE          RMSdq      gap      omega  full diag
   1    -73.3261679 -0.733262E+02  0.120E-04    0.09       0.0  T
   2    -73.3261679  0.410249E-07  0.104E-03    0.09      14.7  T
   3    -73.3261679 -0.385103E-07  0.239E-04    0.09      63.8  T
   4    -73.3261679 -0.333580E-08  0.229E-05    0.09     664.7  T
     SCC iter.                  ...        0 min,  0.102 sec
     gradient                   ...        0 min,  0.081 sec
 * total energy  :   -72.4487273 Eh     change       -0.4248193E-09 Eh
   gradient norm :     0.6172433 Eh/α   predicted     0.0000000E+00 (-100.00%)
   displ. norm   :     0.5837304 α      lambda       -0.3066888E+00
   maximum displ.:     0.2263155 α      in ANC's #93, #77, #44, ...

........................................................................
.............................. CYCLE    2 ..............................
........................................................................

 iter      E             dE          RMSdq      gap      omega  full diag
   1    -72.9767812 -0.729768E+02  0.336E+00    0.22       0.0  T
   2    -73.1931493 -0.216368E+00  0.269E+00    1.47       1.0  T
   3    -73.3482718 -0.155122E+00  0.153E+00    1.57       1.0  T
   4    -73.3699750 -0.217033E-01  0.114E+00    0.90       1.0  T
   5    -73.3797741 -0.979901E-02  0.875E-01    0.43       1.0  T
   6    -72.9237696  0.456004E+00  0.362E+00    0.48       1.0  T
   7    -73.0007853 -0.770157E-01  0.321E+00    0.23       1.0  T
   8    -73.2209195 -0.220134E+00  0.217E+00    0.06       1.0  T
   9    -73.3925907 -0.171671E+00  0.418E-01    0.14       1.0  T
  10    -73.3974550 -0.486427E-02  0.186E-01    0.06       1.0  T
  11    -73.3930043  0.445072E-02  0.413E-01    0.13       1.0  T
  12    -73.3955003 -0.249598E-02  0.307E-01    0.12       1.0  T
  13    -73.3983576 -0.285738E-02  0.860E-02    0.07       1.0  T
  14    -73.3979750  0.382632E-03  0.136E-01    0.07       1.0  T
  15    -73.3985326 -0.557594E-03  0.483E-02    0.08       1.0  T
  16    -73.3985898 -0.571668E-04  0.253E-02    0.08       1.0  T
  17    -73.3985991 -0.928027E-05  0.191E-02    0.08       1.0  T
  18    -73.3986069 -0.788930E-05  0.114E-02    0.08       1.3  T
  19    -73.3986108 -0.389802E-05  0.391E-03    0.08       3.9  T
  20    -73.3986111 -0.288975E-06  0.259E-03    0.08       5.9  T
  21    -73.3986114 -0.224902E-06  0.247E-04    0.08      61.8  T
  22    -73.3986114  0.687365E-09  0.281E-04    0.08      54.3  T
     SCC iter.                  ...        0 min,  0.335 sec
     gradient                   ...        0 min,  0.073 sec
 * total energy  :   -72.6443163 Eh     change       -0.1955890E+00 Eh
   gradient norm :     0.3277782 Eh/α   predicted    -0.2056762E+00 (   5.16%)
   displ. norm   :     0.7372147 α      lambda       -0.2060463E+00
   maximum displ.:     0.2862243 α      in ANC's #68, #77, #66, ...

........................................................................
.............................. CYCLE    3 ..............................
........................................................................

 iter      E             dE          RMSdq      gap      omega  full diag
   1    -73.1195313 -0.731195E+02  0.319E+00    0.16       0.0  T
   2    -73.2833476 -0.163816E+00  0.272E+00    2.19       1.0  T
   3    -73.4484018 -0.165054E+00  0.154E+00    1.65       1.0  T
   4    -73.4704379 -0.220361E-01  0.118E+00    0.92       1.0  T
   5    -73.4788287 -0.839080E-02  0.981E-01    0.57       1.0  T
   6    -73.0093545  0.469474E+00  0.367E+00    0.74       1.0  T
   7    -73.1178071 -0.108453E+00  0.314E+00    0.17       1.0  T
   8    -73.4962278 -0.378421E+00  0.450E-01    0.13       1.0  T
   9    -73.4973599 -0.113210E-02  0.411E-01    0.13       1.0  T
  10    -73.5018035 -0.444356E-02  0.188E-01    0.10       1.0  T
  11    -73.4878223  0.139812E-01  0.655E-01    0.03       1.0  T
  12    -73.5008910 -0.130687E-01  0.248E-01    0.06       1.0  T
  13    -73.4938303  0.706070E-02  0.511E-01    0.04       1.0  T
  14    -73.5020707 -0.824041E-02  0.164E-01    0.06       1.0  T
  15    -73.5025448 -0.474154E-03  0.115E-01    0.07       1.0  T
  16    -73.5029235 -0.378701E-03  0.457E-02    0.07       1.0  T
  17    -73.5029882 -0.646506E-04  0.138E-02    0.08       1.1  T
  18    -73.5029947 -0.651967E-05  0.240E-04    0.08      63.6  T
  19    -73.5029946  0.817184E-07  0.156E-03    0.08       9.8  T
  20    -73.5029947 -0.624587E-07  0.779E-04    0.08      19.6  T
  21    -73.5029947 -0.191797E-07  0.207E-04    0.08      73.8  T
     SCC iter.                  ...        0 min,  0.357 sec
     gradient                   ...        0 min,  0.051 sec
 * total energy  :   -72.7938527 Eh     change       -0.1495364E+00 Eh
   gradient norm :     0.2593446 Eh/α   predicted    -0.1590147E+00 (   6.34%)
   displ. norm   :     0.6433627 α      lambda       -0.1073903E+00
   maximum displ.:     0.3054952 α      in ANC's #44, #68, #66, ...

........................................................................
.............................. CYCLE    4 ..............................
........................................................................

 iter      E             dE          RMSdq      gap      omega  full diag
   1    -73.5619559 -0.735620E+02  0.605E-01    0.22       0.0  T
   2    -73.0334346  0.528521E+00  0.364E+00    0.48       1.0  T
   3    -73.5696950 -0.536260E+00  0.257E-01    0.11       1.0  T
   4    -73.5606727  0.902232E-02  0.529E-01    0.06       1.0  T
   5    -73.5700883 -0.941565E-02  0.441E-02    0.10       1.0  T
   6    -73.5701471 -0.587928E-04  0.194E-02    0.10       1.0  T
   7    -73.5701319  0.152034E-04  0.251E-02    0.10       1.0  T
   8    -73.5701441 -0.121945E-04  0.175E-02    0.10       1.0  T
   9    -73.5701484 -0.431091E-05  0.127E-02    0.10       1.2  T
  10    -73.5701532 -0.475890E-05  0.401E-03    0.10       3.8  T
  11    -73.5701537 -0.480387E-06  0.116E-03    0.10      13.1  T
  12    -73.5701537 -0.395510E-07  0.242E-04    0.10      63.0  T
  13    -73.5701537 -0.144202E-08  0.604E-05    0.10     252.5  T
     SCC iter.                  ...        0 min,  0.192 sec
     gradient                   ...        0 min,  0.081 sec
 * total energy  :   -72.8861914 Eh     change       -0.9233870E-01 Eh
   gradient norm :     0.2505410 Eh/α   predicted    -0.7592042E-01 ( -17.78%)
   displ. norm   :     0.7466856 α      lambda       -0.1171495E+00
   maximum displ.:     0.2763047 α      in ANC's #44, #68, #65, ...

........................................................................
.............................. CYCLE    5 ..............................
........................................................................

 iter      E             dE          RMSdq      gap      omega  full diag
   1    -73.6531561 -0.736532E+02  0.594E-01    0.67       0.0  T
   2    -73.6543564 -0.120029E-02  0.387E-01    0.42       1.0  T
   3    -73.6543013  0.550186E-04  0.153E-01    0.34       1.0  T
   4    -73.6546763 -0.374921E-03  0.513E-02    0.30       1.0  T
   5    -73.6546994 -0.230982E-04  0.276E-02    0.33       1.0  T
   6    -73.6547033 -0.390085E-05  0.152E-02    0.33       1.0  T
   7    -73.6547063 -0.301828E-05  0.672E-03    0.34       2.3  T
   8    -73.6547066 -0.314925E-06  0.311E-03    0.34       4.9  T
   9    -73.6547067 -0.988174E-07  0.115E-03    0.34      13.3  T
  10    -73.6547067 -0.141096E-07  0.547E-04    0.34      27.9  T
  11    -73.6547067 -0.278250E-08  0.262E-04    0.34      58.2  T
     SCC iter.                  ...        0 min,  0.230 sec
     gradient                   ...        0 min,  0.043 sec
 * total energy  :   -72.9903449 Eh     change       -0.1041535E+00 Eh
   gradient norm :     0.2352256 Eh/α   predicted    -0.9123254E-01 ( -12.41%)
   displ. norm   :     0.7872495 α      lambda       -0.1225490E+00
   maximum displ.:     0.3647963 α      in ANC's #63, #65, #68, ...

........................................................................
.............................. CYCLE    6 ..............................
........................................................................

 iter      E             dE          RMSdq      gap      omega  full diag
   1    -73.7393759 -0.737394E+02  0.674E-01    1.38       0.0  T
   2    -73.7432729 -0.389698E-02  0.296E-01    1.79       1.0  T
   3    -73.7434138 -0.140881E-03  0.174E-01    1.71       1.0  T
   4    -73.7435050 -0.912847E-04  0.380E-02    1.72       1.0  T
   5    -73.7435339 -0.288240E-04  0.132E-02    1.72       1.2  T
   6    -73.7435352 -0.131055E-05  0.816E-03    1.72       1.9  T
   7    -73.7435358 -0.611688E-06  0.265E-03    1.72       5.8  T
   8    -73.7435358 -0.428552E-07  0.127E-03    1.73      12.0  T
   9    -73.7435359 -0.195560E-07  0.714E-04    1.73      21.4  T
  10    -73.7435359 -0.395708E-08  0.242E-04    1.73      63.1  T
     SCC iter.                  ...        0 min,  0.218 sec
     gradient                   ...        0 min,  0.088 sec
 * total energy  :   -73.0861402 Eh     change       -0.9579527E-01 Eh
   gradient norm :     0.1716351 Eh/α   predicted    -0.9925022E-01 (   3.61%)
   displ. norm   :     0.6433012 α      lambda       -0.8037419E-01
   maximum displ.:     0.2840356 α      in ANC's #63, #47, #44, ...

........................................................................
.............................. CYCLE    7 ..............................
........................................................................

 iter      E             dE          RMSdq      gap      omega  full diag
   1    -73.8285064 -0.738285E+02  0.424E-01    2.49       0.0  T
   2    -73.8296185 -0.111204E-02  0.234E-01    2.63       1.0  T
   3    -73.8296459 -0.274421E-04  0.108E-01    2.62       1.0  T
   4    -73.8297088 -0.629340E-04  0.244E-02    2.61       1.0  T
   5    -73.8297186 -0.979229E-05  0.103E-02    2.61       1.5  T
   6    -73.8297202 -0.155932E-05  0.577E-03    2.61       2.6  T
   7    -73.8297204 -0.207135E-06  0.257E-03    2.61       5.9  T
   8    -73.8297204 -0.463735E-07  0.105E-03    2.61      14.6  T
   9    -73.8297205 -0.144138E-07  0.600E-04    2.61      25.4  T
  10    -73.8297205 -0.274575E-08  0.158E-04    2.61      96.6  T
     SCC iter.                  ...        0 min,  0.085 sec
     gradient                   ...        0 min,  0.045 sec
 * total energy  :   -73.1520129 Eh     change       -0.6587279E-01 Eh
   gradient norm :     0.1330084 Eh/α   predicted    -0.5681798E-01 ( -13.75%)
   displ. norm   :     0.6915202 α      lambda       -0.6854349E-01
   maximum displ.:     0.2957330 α      in ANC's #63, #47, #44, ...

........................................................................
.............................. CYCLE    8 ..............................
........................................................................

 iter      E             dE          RMSdq      gap      omega  full diag
   1    -73.9121698 -0.739122E+02  0.428E-01    3.12       0.0  T
   2    -73.9131176 -0.947796E-03  0.231E-01    3.16       1.0  T
   3    -73.9131330 -0.154324E-04  0.908E-02    3.17       1.0  T
   4    -73.9131547 -0.216545E-04  0.226E-02    3.16       1.0  T
   5    -73.9131643 -0.968553E-05  0.806E-03    3.17       1.9  T
   6    -73.9131649 -0.580039E-06  0.499E-03    3.16       3.1  T
   7    -73.9131651 -0.147683E-06  0.167E-03    3.17       9.2  T
   8    -73.9131651 -0.285807E-07  0.751E-04    3.17      20.3  T
   9    -73.9131651 -0.506091E-08  0.433E-04    3.17      35.2  T
     SCC iter.                  ...        0 min,  0.186 sec
     gradient                   ...        0 min,  0.085 sec
 * total energy  :   -73.2077607 Eh     change       -0.5574774E-01 Eh
   gradient norm :     0.1123698 Eh/α   predicted    -0.5066050E-01 (  -9.13%)
   displ. norm   :     0.6730702 α      lambda       -0.4912372E-01
   maximum displ.:     0.2785490 α      in ANC's #63, #47, #44, ...

........................................................................
.............................. CYCLE    9 ..............................
........................................................................

 iter      E             dE          RMSdq      gap      omega  full diag
   1    -73.9794305 -0.739794E+02  0.364E-01    3.28       0.0  T
   2    -73.9796712 -0.240679E-03  0.207E-01    3.27       1.0  T
   3    -73.9796708  0.405178E-06  0.494E-02    3.28       1.0  T
   4    -73.9796924 -0.215719E-04  0.112E-02    3.27       1.4  T
   5    -73.9796937 -0.130671E-05  0.631E-03    3.27       2.4  T
   6    -73.9796939 -0.222320E-06  0.361E-03    3.28       4.2  T
   7    -73.9796940 -0.901095E-07  0.116E-03    3.28      13.2  T
   8    -73.9796940 -0.165322E-07  0.618E-04    3.28      24.7  T
   9    -73.9796940 -0.225563E-08  0.248E-04    3.28      61.4  T
     SCC iter.                  ...        0 min,  0.138 sec
     gradient                   ...        0 min,  0.042 sec
 * total energy  :   -73.2457531 Eh     change       -0.3799241E-01 Eh
   gradient norm :     0.0982609 Eh/α   predicted    -0.3568898E-01 (  -6.06%)
   displ. norm   :     0.6452049 α      lambda       -0.3174568E-01
   maximum displ.:     0.3328716 α      in ANC's #47, #63, #42, ...

........................................................................
.............................. CYCLE   10 ..............................
........................................................................

 iter      E             dE          RMSdq      gap      omega  full diag
   1    -74.0034168 -0.740034E+02  0.314E-01    3.24       0.0  T
   2    -74.0036206 -0.203831E-03  0.181E-01    3.24       1.0  T
   3    -74.0036163  0.433615E-05  0.433E-02    3.23       1.0  T
   4    -74.0036375 -0.212379E-04  0.840E-03    3.23       1.8  T
   5    -74.0036383 -0.764564E-06  0.461E-03    3.23       3.3  T
   6    -74.0036384 -0.135620E-06  0.255E-03    3.23       6.0  T
   7    -74.0036384 -0.475255E-07  0.849E-04    3.23      18.0  T
   8    -74.0036385 -0.101375E-07  0.447E-04    3.23      34.1  T
     SCC iter.                  ...        0 min,  0.085 sec
     gradient                   ...        0 min,  0.098 sec
 * total energy  :   -73.2705057 Eh     change       -0.2475262E-01 Eh
   gradient norm :     0.0808909 Eh/α   predicted    -0.2248060E-01 (  -9.18%)
   displ. norm   :     0.6455241 α      lambda       -0.2579247E-01
   maximum displ.:     0.2638018 α      in ANC's #32, #47, #44, ...

........................................................................
.............................. CYCLE   11 ..............................
........................................................................

 iter      E             dE          RMSdq      gap      omega  full diag
   1    -74.0395379 -0.740395E+02  0.322E-01    3.31       0.0  T
   2    -74.0401041 -0.566138E-03  0.175E-01    3.31       1.0  T
   3    -74.0401144 -0.103925E-04  0.641E-02    3.30       1.0  T
   4    -74.0401170 -0.254361E-05  0.158E-02    3.30       1.0  T
   5    -74.0401241 -0.715791E-05  0.438E-03    3.30       3.5  T
   6    -74.0401243 -0.151565E-06  0.260E-03    3.30       5.9  T
   7    -74.0401243 -0.278408E-07  0.107E-03    3.30      14.2  T
   8    -74.0401243 -0.116282E-07  0.450E-04    3.30      33.9  T
   9    -74.0401243 -0.156518E-08  0.234E-04    3.30      65.1  T
     SCC iter.                  ...        0 min,  0.228 sec
     gradient                   ...        0 min,  0.094 sec
 * total energy  :   -73.2885160 Eh     change       -0.1801029E-01 Eh
   gradient norm :     0.0850264 Eh/α   predicted    -0.1827011E-01 (   1.44%)
   displ. norm   :     0.6351061 α      lambda       -0.2103863E-01
   maximum displ.:     0.3741265 α      in ANC's #47, #44, #42, ...

........................................................................
.............................. CYCLE   12 ..............................
........................................................................

 iter      E             dE          RMSdq      gap      omega  full diag
   1    -74.0305012 -0.740305E+02  0.277E-01    3.22       0.0  T
   2    -74.0308384 -0.337210E-03  0.166E-01    3.22       1.0  T
   3    -74.0308263  0.121137E-04  0.618E-02    3.23       1.0  T
   4    -74.0308760 -0.497009E-04  0.120E-02    3.24       1.3  T
   5    -74.0308770 -0.100865E-05  0.608E-03    3.24       2.5  T
   6    -74.0308775 -0.533627E-06  0.320E-03    3.23       4.8  T
   7    -74.0308776 -0.546099E-07  0.114E-03    3.23      13.3  T
   8    -74.0308776 -0.543069E-08  0.572E-04    3.23      26.7  T
   9    -74.0308776 -0.378147E-08  0.246E-04    3.23      62.1  T
     SCC iter.                  ...        0 min,  0.875 sec
     gradient                   ...        0 min,  0.131 sec
 * total energy  :   -73.3012868 Eh     change       -0.1277077E-01 Eh
   gradient norm :     0.0662721 Eh/α   predicted    -0.1476241E-01 (  15.60%)
   displ. norm   :     0.5031059 α      lambda       -0.1103891E-01
   maximum displ.:     0.3136006 α      in ANC's #44, #32, #42, ...

........................................................................
.............................. CYCLE   13 ..............................
........................................................................

 iter      E             dE          RMSdq      gap      omega  full diag
   1    -74.0344771 -0.740345E+02  0.196E-01    3.28       0.0  T
   2    -74.0347124 -0.235380E-03  0.108E-01    3.29       1.0  T
   3    -74.0347148 -0.237709E-05  0.449E-02    3.28       1.0  T
   4    -74.0347195 -0.471687E-05  0.119E-02    3.28       1.3  T
   5    -74.0347227 -0.315271E-05  0.384E-03    3.28       4.0  T
   6    -74.0347228 -0.143185E-06  0.216E-03    3.29       7.1  T
   7    -74.0347229 -0.249189E-07  0.755E-04    3.29      20.2  T
   8    -74.0347229 -0.408717E-08  0.369E-04    3.29      41.3  T
     SCC iter.                  ...        0 min,  0.724 sec
     gradient                   ...        0 min,  0.085 sec
 * total energy  :   -73.3091936 Eh     change       -0.7906882E-02 Eh
   gradient norm :     0.0607062 Eh/α   predicted    -0.6916528E-02 ( -12.53%)
   displ. norm   :     0.5719482 α      lambda       -0.1181844E-01
   maximum displ.:     0.3062257 α      in ANC's #44, #32, #47, ...

........................................................................
.............................. CYCLE   14 ..............................
........................................................................

 iter      E             dE          RMSdq      gap      omega  full diag
   1    -74.0540783 -0.740541E+02  0.229E-01    3.37       0.0  T
   2    -74.0542093 -0.130947E-03  0.132E-01    3.38       1.0  T
   3    -74.0542097 -0.430093E-06  0.381E-02    3.39       1.0  T
   4    -74.0542217 -0.119787E-04  0.886E-03    3.39       1.7  T
   5    -74.0542225 -0.774854E-06  0.454E-03    3.39       3.4  T
   6    -74.0542225 -0.755041E-07  0.213E-03    3.39       7.2  T
   7    -74.0542226 -0.326612E-07  0.550E-04    3.39      27.7  T
   8    -74.0542226 -0.284909E-08  0.269E-04    3.39      56.7  T
     SCC iter.                  ...        0 min,  1.498 sec
     gradient                   ...        0 min,  0.089 sec
 * total energy  :   -73.3166736 Eh     change       -0.7479976E-02 Eh
   gradient norm :     0.0725321 Eh/α   predicted    -0.7842274E-02 (   4.84%)
   displ. norm   :     0.5907659 α      lambda       -0.1320737E-01
   maximum displ.:     0.3191955 α      in ANC's #44, #47, #32, ...

........................................................................
.............................. CYCLE   15 ..............................
........................................................................

 iter      E             dE          RMSdq      gap      omega  full diag
   1    -74.0661011 -0.740661E+02  0.262E-01    3.46       0.0  T
   2    -74.0664770 -0.375886E-03  0.140E-01    3.47       1.0  T
   3    -74.0664886 -0.116223E-04  0.553E-02    3.47       1.0  T
   4    -74.0664931 -0.449340E-05  0.141E-02    3.47       1.1  T
   5    -74.0664971 -0.396834E-05  0.538E-03    3.47       2.8  T
   6    -74.0664972 -0.140652E-06  0.276E-03    3.47       5.5  T
   7    -74.0664973 -0.516308E-07  0.725E-04    3.47      21.0  T
   8    -74.0664973 -0.485574E-08  0.357E-04    3.47      42.7  T
     SCC iter.                  ...        0 min,  0.280 sec
     gradient                   ...        0 min,  0.076 sec
 * total energy  :   -73.3239102 Eh     change       -0.7236561E-02 Eh
   gradient norm :     0.1003657 Eh/α   predicted    -0.8908401E-02 (  23.10%)
   displ. norm   :     0.4912763 α      lambda       -0.1717439E-01
   maximum displ.:     0.2828995 α      in ANC's #44, #32, #103, ...

........................................................................
.............................. CYCLE   16 ..............................
........................................................................

 iter      E             dE          RMSdq      gap      omega  full diag
   1    -74.0638384 -0.740638E+02  0.274E-01    3.44       0.0  T
   2    -74.0647313 -0.892847E-03  0.119E-01    3.41       1.0  T
   3    -74.0647499 -0.186713E-04  0.620E-02    3.41       1.0  T
   4    -74.0647489  0.102552E-05  0.173E-02    3.42       1.0  T
   5    -74.0647554 -0.652417E-05  0.554E-03    3.42       2.8  T
   6    -74.0647555 -0.970410E-07  0.284E-03    3.42       5.4  T
   7    -74.0647556 -0.735308E-07  0.117E-03    3.42      13.1  T
   8    -74.0647556 -0.763507E-08  0.489E-04    3.42      31.2  T
   9    -74.0647556 -0.240885E-08  0.245E-04    3.42      62.2  T
     SCC iter.                  ...        0 min,  0.586 sec
     gradient                   ...        0 min,  0.084 sec
 * total energy  :   -73.3358545 Eh     change       -0.1194428E-01 Eh
   gradient norm :     0.1169146 Eh/α   predicted    -0.1065973E-01 ( -10.75%)
   displ. norm   :     0.4423321 α      lambda       -0.1809189E-01
   maximum displ.:     0.2673779 α      in ANC's #32, #103, #93, ...

........................................................................
.............................. CYCLE   17 ..............................
........................................................................

 iter      E             dE          RMSdq      gap      omega  full diag
   1    -74.0688062 -0.740688E+02  0.262E-01    3.33       0.0  T
   2    -74.0691146 -0.308400E-03  0.143E-01    3.34       1.0  T
   3    -74.0691237 -0.909940E-05  0.605E-02    3.34       1.0  T
   4    -74.0691478 -0.241183E-04  0.132E-02    3.35       1.2  T
   5    -74.0691488 -0.102457E-05  0.596E-03    3.35       2.6  T
   6    -74.0691489 -0.973332E-07  0.261E-03    3.34       5.8  T
   7    -74.0691490 -0.561185E-07  0.101E-03    3.34      15.0  T
   8    -74.0691490 -0.846040E-08  0.475E-04    3.34      32.1  T
   9    -74.0691490 -0.199537E-08  0.198E-04    3.34      77.1  T
     SCC iter.                  ...        0 min,  0.365 sec
     gradient                   ...        0 min,  0.077 sec
 * total energy  :   -73.3475244 Eh     change       -0.1166998E-01 Eh
   gradient norm :     0.1204558 Eh/α   predicted    -0.1081585E-01 (  -7.32%)
   displ. norm   :     0.4191013 α      lambda       -0.1937661E-01
   maximum displ.:     0.1605894 α      in ANC's #8, #44, #103, ...

........................................................................
.............................. CYCLE   18 ..............................
........................................................................

 iter      E             dE          RMSdq      gap      omega  full diag
   1    -74.0663282 -0.740663E+02  0.279E-01    3.29       0.0  T
   2    -74.0673028 -0.974524E-03  0.137E-01    3.35       1.0  T
   3    -74.0673421 -0.393151E-04  0.782E-02    3.35       1.0  T
   4    -74.0673484 -0.632362E-05  0.186E-02    3.35       1.0  T
   5    -74.0673532 -0.477395E-05  0.647E-03    3.35       2.4  T
   6    -74.0673534 -0.256337E-06  0.375E-03    3.35       4.1  T
   7    -74.0673535 -0.813225E-07  0.135E-03    3.35      11.3  T
   8    -74.0673535 -0.196924E-07  0.619E-04    3.35      24.7  T
   9    -74.0673535 -0.175453E-08  0.257E-04    3.35      59.3  T
     SCC iter.                  ...        0 min,  0.094 sec
     gradient                   ...        0 min,  0.084 sec
 * total energy  :   -73.3571749 Eh     change       -0.9650442E-02 Eh
   gradient norm :     0.0829639 Eh/α   predicted    -0.1139002E-01 (  18.03%)
   displ. norm   :     0.2309041 α      lambda       -0.9142136E-02
   maximum displ.:     0.1417498 α      in ANC's #32, #47, #8, ...

........................................................................
.............................. CYCLE   19 ..............................
........................................................................

 iter      E             dE          RMSdq      gap      omega  full diag
   1    -74.0804828 -0.740805E+02  0.157E-01    3.36       0.0  T
   2    -74.0807337 -0.250870E-03  0.763E-02    3.38       1.0  T
   3    -74.0807389 -0.519155E-05  0.383E-02    3.38       1.0  T
   4    -74.0807386  0.317608E-06  0.107E-02    3.38       1.4  T
   5    -74.0807412 -0.266633E-05  0.304E-03    3.38       5.0  T
   6    -74.0807413 -0.667815E-07  0.185E-03    3.38       8.2  T
   7    -74.0807413 -0.245957E-07  0.829E-04    3.38      18.4  T
   8    -74.0807413 -0.629191E-08  0.329E-04    3.38      46.4  T
     SCC iter.                  ...        0 min,  0.108 sec
     gradient                   ...        0 min,  0.076 sec
 * total energy  :   -73.3636490 Eh     change       -0.6474104E-02 Eh
   gradient norm :     0.0542221 Eh/α   predicted    -0.4814777E-02 ( -25.63%)
   displ. norm   :     0.4360539 α      lambda       -0.8976894E-02
   maximum displ.:     0.2359882 α      in ANC's #47, #32, #77, ...

........................................................................
.............................. CYCLE   20 ..............................
........................................................................

 iter      E             dE          RMSdq      gap      omega  full diag
   1    -74.0858153 -0.740858E+02  0.188E-01    3.37       0.0  T
   2    -74.0858968 -0.814629E-04  0.108E-01    3.38       1.0  T
   3    -74.0858985 -0.172491E-05  0.301E-02    3.38       1.0  T
   4    -74.0859051 -0.658369E-05  0.981E-03    3.39       1.6  T
   5    -74.0859067 -0.160689E-05  0.459E-03    3.39       3.3  T
   6    -74.0859068 -0.111576E-06  0.262E-03    3.39       5.8  T
   7    -74.0859068 -0.551262E-07  0.864E-04    3.39      17.6  T
   8    -74.0859069 -0.704169E-08  0.435E-04    3.39      35.1  T
     SCC iter.                  ...        0 min,  0.146 sec
     gradient                   ...        0 min,  0.058 sec
 * total energy  :   -73.3678953 Eh     change       -0.4246260E-02 Eh
   gradient norm :     0.0664845 Eh/α   predicted    -0.5341898E-02 (  25.80%)
   displ. norm   :     0.2859333 α      lambda       -0.6674134E-02
   maximum displ.:     0.1626681 α      in ANC's #8, #44, #85, ...
 * RMSD in coord.:     1.1260582 α      energy gain  -0.9191680E+00 Eh

generating ANC from exact Hessian ...
Using Lindh-Hessian (1995)
 Shifting diagonal of input Hessian by    1.0340139335284800E-002
 Lowest  eigenvalues of input Hessian
    0.010000    0.010018    0.010086    0.000000    0.000000    0.000000
    0.000000    0.000000    0.000000    0.010395    0.010494    0.010632
    0.010697    0.010747    0.010821    0.010933    0.011023    0.011145
 Highest eigenvalues
    1.874962    1.909074    1.960591    2.060577    2.427763    2.460648


........................................................................
.............................. CYCLE   21 ..............................
........................................................................

 iter      E             dE          RMSdq      gap      omega  full diag
   1    -74.1021399 -0.741021E+02  0.126E-01    3.36       0.0  T
   2    -74.1021915 -0.515833E-04  0.730E-02    3.36       1.0  T
   3    -74.1021933 -0.184591E-05  0.231E-02    3.37       1.0  T
   4    -74.1021966 -0.331575E-05  0.801E-03    3.37       1.9  T
   5    -74.1021977 -0.105145E-05  0.363E-03    3.37       4.2  T
   6    -74.1021978 -0.724287E-07  0.205E-03    3.37       7.4  T
   7    -74.1021978 -0.409581E-07  0.786E-04    3.37      19.4  T
   8    -74.1021978 -0.302384E-08  0.328E-04    3.37      46.5  T
     SCC iter.                  ...        0 min,  0.163 sec
     gradient                   ...        0 min,  0.089 sec
 * total energy  :   -73.3717835 Eh     change       -0.3888281E-02 Eh
   gradient norm :     0.0558525 Eh/α   predicted     0.0000000E+00 (-100.00%)
   displ. norm   :     0.4033594 α      lambda       -0.7258782E-02
   maximum displ.:     0.2415623 α      in ANC's #27, #22, #31, ...

........................................................................
.............................. CYCLE   22 ..............................
........................................................................

 iter      E             dE          RMSdq      gap      omega  full diag
   1    -74.1024147 -0.741024E+02  0.120E-01    3.36       0.0  T
   2    -74.1025083 -0.936068E-04  0.633E-02    3.35       1.0  T
   3    -74.1025105 -0.211850E-05  0.258E-02    3.35       1.0  T
   4    -74.1025108 -0.322139E-06  0.497E-03    3.35       3.1  T
   5    -74.1025114 -0.579373E-06  0.220E-03    3.35       6.9  T
   6    -74.1025114 -0.198675E-07  0.936E-04    3.35      16.3  T
   7    -74.1025114 -0.572935E-08  0.324E-04    3.35      47.0  T
     SCC iter.                  ...        0 min,  0.124 sec
     gradient                   ...        0 min,  0.077 sec
 * total energy  :   -73.3778130 Eh     change       -0.6029471E-02 Eh
   gradient norm :     0.0249806 Eh/α   predicted    -0.4231328E-02 ( -29.82%)
   displ. norm   :     0.6657172 α      lambda       -0.7407594E-02
   maximum displ.:     0.4000193 α      in ANC's #22, #27, #31, ...

........................................................................
.............................. CYCLE   23 ..............................
........................................................................

 iter      E             dE          RMSdq      gap      omega  full diag
   1    -74.0991375 -0.740991E+02  0.167E-01    3.33       0.0  T
   2    -74.0993141 -0.176526E-03  0.885E-02    3.32       1.0  T
   3    -74.0993185 -0.441542E-05  0.359E-02    3.32       1.0  T
   4    -74.0993193 -0.774567E-06  0.631E-03    3.31       2.4  T
   5    -74.0993201 -0.823760E-06  0.314E-03    3.32       4.9  T
   6    -74.0993201 -0.456250E-07  0.135E-03    3.32      11.3  T
   7    -74.0993201 -0.110328E-07  0.426E-04    3.32      35.8  T
   8    -74.0993201 -0.202722E-08  0.219E-04    3.32      69.5  T
     SCC iter.                  ...        0 min,  0.156 sec
     gradient                   ...        0 min,  0.044 sec
 * total energy  :   -73.3829730 Eh     change       -0.5159981E-02 Eh
   gradient norm :     0.0258477 Eh/α   predicted    -0.5345244E-02 (   3.59%)
   displ. norm   :     0.5146121 α      lambda       -0.3302797E-02
   maximum displ.:     0.3521036 α      in ANC's #22, #27, #20, ...

........................................................................
.............................. CYCLE   24 ..............................
........................................................................

 iter      E             dE          RMSdq      gap      omega  full diag
   1    -74.0983987 -0.740984E+02  0.103E-01    3.30       0.0  T
   2    -74.0984316 -0.329345E-04  0.583E-02    3.29       1.0  T
   3    -74.0984329 -0.122390E-05  0.161E-02    3.29       1.0  T
   4    -74.0984332 -0.313937E-06  0.287E-03    3.29       5.3  T
   5    -74.0984333 -0.857519E-07  0.172E-03    3.29       8.9  T
   6    -74.0984333 -0.138617E-07  0.813E-04    3.29      18.7  T
   7    -74.0984333 -0.605189E-08  0.225E-04    3.29      67.6  T
     SCC iter.                  ...        0 min,  0.076 sec
     gradient                   ...        0 min,  0.045 sec
 * total energy  :   -73.3856744 Eh     change       -0.2701413E-02 Eh
   gradient norm :     0.0336936 Eh/α   predicted    -0.2088759E-02 ( -22.68%)
   displ. norm   :     0.5855495 α      lambda       -0.3860245E-02
   maximum displ.:     0.4155178 α      in ANC's #22, #27, #20, ...

........................................................................
.............................. CYCLE   25 ..............................
........................................................................

 iter      E             dE          RMSdq      gap      omega  full diag
   1    -74.1027052 -0.741027E+02  0.116E-01    3.26       0.0  T
   2    -74.1027176 -0.124192E-04  0.683E-02    3.26       1.0  T
   3    -74.1027179 -0.357770E-06  0.958E-03    3.26       1.6  T
   4    -74.1027191 -0.119937E-05  0.343E-03    3.26       4.4  T
   5    -74.1027192 -0.939681E-07  0.194E-03    3.26       7.9  T
   6    -74.1027193 -0.136820E-07  0.820E-04    3.26      18.6  T
   7    -74.1027193 -0.508550E-08  0.290E-04    3.26      52.7  T
     SCC iter.                  ...        0 min,  0.110 sec
     gradient                   ...        0 min,  0.085 sec
 * total energy  :   -73.3886866 Eh     change       -0.3012184E-02 Eh
   gradient norm :     0.0249153 Eh/α   predicted    -0.2591904E-02 ( -13.95%)
   displ. norm   :     0.5542689 α      lambda       -0.2715258E-02
   maximum displ.:     0.4250949 α      in ANC's #22, #27, #20, ...

........................................................................
.............................. CYCLE   26 ..............................
........................................................................

 iter      E             dE          RMSdq      gap      omega  full diag
   1    -74.1100290 -0.741100E+02  0.980E-02    3.23       0.0  T
   2    -74.1100538 -0.248203E-04  0.567E-02    3.24       1.0  T
   3    -74.1100537  0.765701E-07  0.163E-02    3.24       1.0  T
   4    -74.1100553 -0.161479E-05  0.390E-03    3.24       3.9  T
   5    -74.1100557 -0.325722E-06  0.173E-03    3.24       8.8  T
   6    -74.1100557 -0.119853E-07  0.996E-04    3.24      15.3  T
   7    -74.1100557 -0.753033E-08  0.282E-04    3.24      54.1  T
     SCC iter.                  ...        0 min,  0.063 sec
     gradient                   ...        0 min,  0.066 sec
 * total energy  :   -73.3907282 Eh     change       -0.2041666E-02 Eh
   gradient norm :     0.0138729 Eh/α   predicted    -0.1774713E-02 ( -13.08%)
   displ. norm   :     0.4983935 α      lambda       -0.1643035E-02
   maximum displ.:     0.3845263 α      in ANC's #22, #20, #27, ...

........................................................................
.............................. CYCLE   27 ..............................
........................................................................

 iter      E             dE          RMSdq      gap      omega  full diag
   1    -74.1122404 -0.741122E+02  0.921E-02    3.21       0.0  T
   2    -74.1122683 -0.278756E-04  0.531E-02    3.22       1.0  T
   3    -74.1122687 -0.427698E-06  0.168E-02    3.22       1.0  T
   4    -74.1122697 -0.103579E-05  0.401E-03    3.22       3.8  T
   5    -74.1122701 -0.337872E-06  0.177E-03    3.22       8.6  T
   6    -74.1122701 -0.862984E-08  0.104E-03    3.22      14.7  T
   7    -74.1122701 -0.551520E-08  0.327E-04    3.22      46.6  T
   8    -74.1122701 -0.110578E-08  0.140E-04    3.22     108.7  T
     SCC iter.                  ...        0 min,  0.066 sec
     gradient                   ...        0 min,  0.045 sec
 * total energy  :   -73.3919348 Eh     change       -0.1206529E-02 Eh
   gradient norm :     0.0164581 Eh/α   predicted    -0.1025581E-02 ( -15.00%)
   displ. norm   :     0.4559935 α      lambda       -0.1319253E-02
   maximum displ.:     0.3553408 α      in ANC's #22, #20, #4, ...

........................................................................
.............................. CYCLE   28 ..............................
........................................................................

 iter      E             dE          RMSdq      gap      omega  full diag
   1    -74.1204476 -0.741204E+02  0.852E-02    3.21       0.0  T
   2    -74.1204659 -0.182425E-04  0.494E-02    3.21       1.0  T
   3    -74.1204662 -0.360017E-06  0.135E-02    3.21       1.1  T
   4    -74.1204671 -0.830110E-06  0.359E-03    3.21       4.3  T
   5    -74.1204673 -0.238619E-06  0.167E-03    3.21       9.1  T
   6    -74.1204673 -0.654575E-08  0.942E-04    3.21      16.2  T
   7    -74.1204673 -0.663563E-08  0.304E-04    3.21      50.2  T
     SCC iter.                  ...        0 min,  0.087 sec
     gradient                   ...        0 min,  0.045 sec
 * total energy  :   -73.3927256 Eh     change       -0.7908371E-03 Eh
   gradient norm :     0.0193513 Eh/α   predicted    -0.7968053E-03 (   0.75%)
   displ. norm   :     0.4318279 α      lambda       -0.9904389E-03
   maximum displ.:     0.3147896 α      in ANC's #22, #20, #4, ...

........................................................................
.............................. CYCLE   29 ..............................
........................................................................

 iter      E             dE          RMSdq      gap      omega  full diag
   1    -74.1151251 -0.741151E+02  0.938E-02    3.21       0.0  T
   2    -74.1151325 -0.743533E-05  0.558E-02    3.20       1.0  T
   3    -74.1151332 -0.694446E-06  0.737E-03    3.20       2.1  T
   4    -74.1151340 -0.739425E-06  0.340E-03    3.20       4.5  T
   5    -74.1151340 -0.562221E-07  0.207E-03    3.20       7.4  T
   6    -74.1151340 -0.708086E-08  0.105E-03    3.20      14.5  T
   7    -74.1151340 -0.665564E-08  0.291E-04    3.20      52.5  T
   8    -74.1151340 -0.120441E-08  0.116E-04    3.20     131.6  T
     SCC iter.                  ...        0 min,  0.151 sec
     gradient                   ...        0 min,  0.046 sec
 * total energy  :   -73.3932635 Eh     change       -0.5379099E-03 Eh
   gradient norm :     0.0176935 Eh/α   predicted    -0.5875680E-03 (   9.23%)
   displ. norm   :     0.2266394 α      lambda       -0.4814907E-03
   maximum displ.:     0.1536310 α      in ANC's #22, #20, #31, ...

........................................................................
.............................. CYCLE   30 ..............................
........................................................................

 iter      E             dE          RMSdq      gap      omega  full diag
   1    -74.1138564 -0.741139E+02  0.635E-02    3.21       0.0  T
   2    -74.1138620 -0.555494E-05  0.366E-02    3.20       1.0  T
   3    -74.1138622 -0.255620E-06  0.737E-03    3.20       2.1  T
   4    -74.1138626 -0.354489E-06  0.259E-03    3.20       5.9  T
   5    -74.1138626 -0.616424E-07  0.164E-03    3.20       9.3  T
   6    -74.1138626 -0.566430E-09  0.879E-04    3.20      17.3  T
   7    -74.1138626 -0.370872E-08  0.285E-04    3.20      53.6  T
     SCC iter.                  ...        0 min,  0.066 sec
     gradient                   ...        0 min,  0.045 sec
 * total energy  :   -73.3934991 Eh     change       -0.2355485E-03 Eh
   gradient norm :     0.0126486 Eh/α   predicted    -0.2531122E-03 (   7.46%)
   displ. norm   :     0.2380291 α      lambda       -0.5855074E-03
   maximum displ.:     0.1080632 α      in ANC's #22, #31, #20, ...

........................................................................
.............................. CYCLE   31 ..............................
........................................................................

 iter      E             dE          RMSdq      gap      omega  full diag
   1    -74.1188521 -0.741189E+02  0.833E-02    3.22       0.0  T
   2    -74.1188719 -0.197782E-04  0.471E-02    3.21       1.0  T
   3    -74.1188724 -0.459220E-06  0.147E-02    3.21       1.0  T
   4    -74.1188735 -0.112234E-05  0.385E-03    3.21       4.0  T
   5    -74.1188737 -0.174049E-06  0.199E-03    3.21       7.7  T
   6    -74.1188737 -0.565132E-08  0.113E-03    3.21      13.5  T
   7    -74.1188737 -0.519823E-08  0.452E-04    3.21      33.7  T
   8    -74.1188737 -0.142815E-08  0.134E-04    3.21     113.4  T
     SCC iter.                  ...        0 min,  0.129 sec
     gradient                   ...        0 min,  0.044 sec
 * total energy  :   -73.3936247 Eh     change       -0.1256728E-03 Eh
   gradient norm :     0.0137892 Eh/α   predicted    -0.3093414E-03 ( 146.15%)
   displ. norm   :     0.0634793 α      lambda       -0.2861908E-03
   maximum displ.:     0.0283191 α      in ANC's #21, #33, #1, ...

........................................................................
.............................. CYCLE   32 ..............................
........................................................................

 iter      E             dE          RMSdq      gap      omega  full diag
   1    -74.1170314 -0.741170E+02  0.303E-02    3.21       0.0  T
   2    -74.1170326 -0.125236E-05  0.180E-02    3.21       1.0  T
   3    -74.1170327 -0.838182E-07  0.346E-03    3.21       4.4  T
   4    -74.1170329 -0.156858E-06  0.128E-03    3.21      12.0  T
   5    -74.1170329 -0.812452E-08  0.675E-04    3.21      22.6  T
   6    -74.1170329 -0.700666E-09  0.319E-04    3.21      47.8  T
     SCC iter.                  ...        0 min,  0.114 sec
     gradient                   ...        0 min,  0.083 sec
 * total energy  :   -73.3938084 Eh     change       -0.1836937E-03 Eh
   gradient norm :     0.0067407 Eh/α   predicted    -0.1436750E-03 ( -21.79%)
   displ. norm   :     0.1077624 α      lambda       -0.1327138E-03
   maximum displ.:     0.0498222 α      in ANC's #4, #21, #1, ...

........................................................................
.............................. CYCLE   33 ..............................
........................................................................

 iter      E             dE          RMSdq      gap      omega  full diag
   1    -74.1162024 -0.741162E+02  0.254E-02    3.21       0.0  T
   2    -74.1162030 -0.649933E-06  0.152E-02    3.21       1.0  T
   3    -74.1162032 -0.108684E-06  0.231E-03    3.21       6.6  T
   4    -74.1162032 -0.554650E-07  0.107E-03    3.21      14.3  T
   5    -74.1162032 -0.668823E-08  0.563E-04    3.21      27.1  T
   6    -74.1162032 -0.735923E-09  0.281E-04    3.21      54.2  T
     SCC iter.                  ...        0 min,  0.072 sec
     gradient                   ...        0 min,  0.083 sec
 * total energy  :   -73.3939003 Eh     change       -0.9188158E-04 Eh
   gradient norm :     0.0072817 Eh/α   predicted    -0.6712833E-04 ( -26.94%)
   displ. norm   :     0.2181793 α      lambda       -0.1846286E-03
   maximum displ.:     0.1036729 α      in ANC's #4, #21, #1, ...

........................................................................
.............................. CYCLE   34 ..............................
........................................................................

 iter      E             dE          RMSdq      gap      omega  full diag
   1    -74.1152014 -0.741152E+02  0.474E-02    3.21       0.0  T
   2    -74.1152025 -0.107244E-05  0.281E-02    3.21       1.0  T
   3    -74.1152027 -0.228697E-06  0.294E-03    3.21       5.2  T
   4    -74.1152028 -0.805173E-07  0.138E-03    3.21      11.0  T
   5    -74.1152028 -0.131208E-07  0.779E-04    3.21      19.6  T
   6    -74.1152028 -0.150507E-08  0.405E-04    3.21      37.6  T
     SCC iter.                  ...        0 min,  0.122 sec
     gradient                   ...        0 min,  0.069 sec
 * total energy  :   -73.3940075 Eh     change       -0.1071480E-03 Eh
   gradient norm :     0.0113387 Eh/α   predicted    -0.9670989E-04 (  -9.74%)
   displ. norm   :     0.3627039 α      lambda       -0.3260463E-03
   maximum displ.:     0.1791879 α      in ANC's #4, #21, #1, ...

........................................................................
.............................. CYCLE   35 ..............................
........................................................................

 iter      E             dE          RMSdq      gap      omega  full diag
   1    -74.1153964 -0.741154E+02  0.700E-02    3.21       0.0  T
   2    -74.1153981 -0.176398E-05  0.418E-02    3.22       1.0  T
   3    -74.1153986 -0.463691E-06  0.404E-03    3.22       3.8  T
   4    -74.1153987 -0.127733E-06  0.245E-03    3.22       6.2  T
   5    -74.1153988 -0.285857E-07  0.144E-03    3.22      10.6  T
   6    -74.1153988 -0.412535E-08  0.527E-04    3.22      28.9  T
   7    -74.1153988 -0.289036E-08  0.170E-04    3.22      89.9  T
     SCC iter.                  ...        0 min,  0.078 sec
     gradient                   ...        0 min,  0.047 sec
 * total energy  :   -73.3941860 Eh     change       -0.1784917E-03 Eh
   gradient norm :     0.0140670 Eh/α   predicted    -0.1844703E-03 (   3.35%)
   displ. norm   :     0.2313225 α      lambda       -0.2884647E-03
   maximum displ.:     0.1313331 α      in ANC's #4, #21, #1, ...

........................................................................
.............................. CYCLE   36 ..............................
........................................................................

 iter      E             dE          RMSdq      gap      omega  full diag
   1    -74.1180482 -0.741180E+02  0.412E-02    3.22       0.0  T
   2    -74.1180495 -0.129568E-05  0.245E-02    3.22       1.0  T
   3    -74.1180496 -0.115347E-06  0.358E-03    3.22       4.3  T
   4    -74.1180498 -0.183669E-06  0.145E-03    3.22      10.5  T
   5    -74.1180498 -0.109892E-07  0.810E-04    3.22      18.8  T
   6    -74.1180498 -0.500734E-09  0.393E-04    3.22      38.8  T
     SCC iter.                  ...        0 min,  0.133 sec
     gradient                   ...        0 min,  0.049 sec
 * total energy  :   -73.3943756 Eh     change       -0.1896766E-03 Eh
   gradient norm :     0.0119585 Eh/α   predicted    -0.1519537E-03 ( -19.89%)
   displ. norm   :     0.4154243 α      lambda       -0.6772749E-03
   maximum displ.:     0.2413815 α      in ANC's #4, #1, #21, ...

........................................................................
.............................. CYCLE   37 ..............................
........................................................................

 iter      E             dE          RMSdq      gap      omega  full diag
   1    -74.1164496 -0.741164E+02  0.806E-02    3.21       0.0  T
   2    -74.1164569 -0.728581E-05  0.482E-02    3.21       1.0  T
   3    -74.1164570 -0.520847E-07  0.943E-03    3.21       1.6  T
   4    -74.1164585 -0.150169E-05  0.317E-03    3.21       4.8  T
   5    -74.1164585 -0.533006E-07  0.176E-03    3.21       8.7  T
   6    -74.1164585 -0.982595E-09  0.856E-04    3.21      17.8  T
   7    -74.1164585 -0.913138E-08  0.276E-04    3.21      55.2  T
     SCC iter.                  ...        0 min,  0.142 sec
     gradient                   ...        0 min,  0.081 sec
 * total energy  :   -73.3946555 Eh     change       -0.2799036E-03 Eh
   gradient norm :     0.0144604 Eh/α   predicted    -0.3970790E-03 (  41.86%)
   displ. norm   :     0.4094615 α      lambda       -0.5154887E-03
   maximum displ.:     0.2261931 α      in ANC's #4, #21, #1, ...

........................................................................
.............................. CYCLE   38 ..............................
........................................................................

 iter      E             dE          RMSdq      gap      omega  full diag
   1    -74.1129321 -0.741129E+02  0.850E-02    3.21       0.0  T
   2    -74.1129343 -0.221050E-05  0.510E-02    3.21       1.0  T
   3    -74.1129353 -0.979790E-06  0.536E-03    3.21       2.8  T
   4    -74.1129353 -0.946463E-07  0.337E-03    3.21       4.5  T
   5    -74.1129354 -0.246951E-07  0.161E-03    3.21       9.5  T
   6    -74.1129354 -0.118130E-07  0.499E-04    3.21      30.6  T
   7    -74.1129354 -0.362382E-08  0.145E-04    3.21     105.1  T
     SCC iter.                  ...        0 min,  0.149 sec
     gradient                   ...        0 min,  0.064 sec
 * total energy  :   -73.3948289 Eh     change       -0.1733239E-03 Eh
   gradient norm :     0.0215488 Eh/α   predicted    -0.3009605E-03 (  73.64%)
   displ. norm   :     0.2588804 α      lambda       -0.8655143E-03
   maximum displ.:     0.1354284 α      in ANC's #4, #22, #5, ...

........................................................................
.............................. CYCLE   39 ..............................
........................................................................

 iter      E             dE          RMSdq      gap      omega  full diag
   1    -74.1197480 -0.741197E+02  0.640E-02    3.21       0.0  T
   2    -74.1197519 -0.393529E-05  0.381E-02    3.21       1.0  T
   3    -74.1197522 -0.299060E-06  0.684E-03    3.21       2.2  T
   4    -74.1197530 -0.796871E-06  0.274E-03    3.21       5.6  T
   5    -74.1197531 -0.327740E-07  0.149E-03    3.21      10.3  T
   6    -74.1197531 -0.796612E-08  0.836E-04    3.21      18.2  T
   7    -74.1197531 -0.561290E-08  0.247E-04    3.21      61.8  T
     SCC iter.                  ...        0 min,  0.076 sec
     gradient                   ...        0 min,  0.041 sec
 * total energy  :   -73.3950775 Eh     change       -0.2486580E-03 Eh
   gradient norm :     0.0164620 Eh/α   predicted    -0.4617627E-03 (  85.70%)
   displ. norm   :     0.3359500 α      lambda       -0.7030500E-03
   maximum displ.:     0.1963966 α      in ANC's #4, #21, #1, ...

........................................................................
.............................. CYCLE   40 ..............................
........................................................................

 iter      E             dE          RMSdq      gap      omega  full diag
   1    -74.1156025 -0.741156E+02  0.809E-02    3.22       0.0  T
   2    -74.1156085 -0.600463E-05  0.482E-02    3.22       1.0  T
   3    -74.1156096 -0.112029E-05  0.721E-03    3.22       2.1  T
   4    -74.1156098 -0.209775E-06  0.377E-03    3.22       4.0  T
   5    -74.1156098 -0.107751E-07  0.174E-03    3.22       8.8  T
   6    -74.1156098 -0.238542E-07  0.611E-04    3.22      25.0  T
   7    -74.1156098 -0.476889E-08  0.165E-04    3.22      92.5  T
     SCC iter.                  ...        0 min,  0.132 sec
     gradient                   ...        0 min,  0.051 sec
 * total energy  :   -73.3951933 Eh     change       -0.1157838E-03 Eh
   gradient norm :     0.0239552 Eh/α   predicted    -0.3912012E-03 ( 237.87%)
   displ. norm   :     0.2126775 α      lambda       -0.1199894E-02
   maximum displ.:     0.1040996 α      in ANC's #21, #4, #28, ...

........................................................................
.............................. CYCLE   41 ..............................
........................................................................

 iter      E             dE          RMSdq      gap      omega  full diag
   1    -74.1202313 -0.741202E+02  0.910E-02    3.22       0.0  T
   2    -74.1202366 -0.529695E-05  0.558E-02    3.22       1.0  T
   3    -74.1202382 -0.154690E-05  0.977E-03    3.21       1.6  T
   4    -74.1202386 -0.417085E-06  0.547E-03    3.22       2.8  T
   5    -74.1202387 -0.918212E-07  0.228E-03    3.22       6.7  T
   6    -74.1202387 -0.260425E-07  0.962E-04    3.22      15.9  T
   7    -74.1202387 -0.102134E-07  0.405E-04    3.22      37.6  T
     SCC iter.                  ...        0 min,  0.077 sec
     gradient                   ...        0 min,  0.044 sec
 * total energy  :   -73.3950228 Eh     change        0.1704635E-03 Eh
   gradient norm :     0.0296174 Eh/α   predicted    -0.6270863E-03 (-467.87%)
   displ. norm   :     0.2620145 α      lambda       -0.1626586E-02
   maximum displ.:     0.1331759 α      in ANC's #21, #4, #20, ...

........................................................................
.............................. CYCLE   42 ..............................
........................................................................

 iter      E             dE          RMSdq      gap      omega  full diag
   1    -74.1151308 -0.741151E+02  0.777E-02    3.20       0.0  T
   2    -74.1151372 -0.635367E-05  0.468E-02    3.21       1.0  T
   3    -74.1151382 -0.993314E-06  0.955E-03    3.20       1.6  T
   4    -74.1151385 -0.305970E-06  0.456E-03    3.20       3.3  T
   5    -74.1151385 -0.186119E-07  0.202E-03    3.20       7.6  T
   6    -74.1151385 -0.239113E-07  0.787E-04    3.20      19.4  T
   7    -74.1151385 -0.554130E-08  0.323E-04    3.20      47.1  T
     SCC iter.                  ...        0 min,  0.150 sec
     gradient                   ...        0 min,  0.048 sec
 * total energy  :   -73.3956468 Eh     change       -0.6239785E-03 Eh
   gradient norm :     0.0149011 Eh/α   predicted    -0.8691289E-03 (  39.29%)
   displ. norm   :     0.2534358 α      lambda       -0.6772396E-03
   maximum displ.:     0.1648401 α      in ANC's #4, #5, #1, ...
 * RMSD in coord.:     0.7763315 α      energy gain  -0.2775157E-01 Eh

generating ANC from exact Hessian ...
Using Lindh-Hessian (1995)
 Shifting diagonal of input Hessian by    1.0344857802489131E-002
 Lowest  eigenvalues of input Hessian
    0.010000    0.010015    0.010103    0.000000    0.000000    0.000000
    0.000000    0.000000    0.000000    0.010392    0.010499    0.010647
    0.010724    0.010746    0.010908    0.010937    0.011106    0.011228
 Highest eigenvalues
    1.886559    1.917554    1.966174    2.075252    2.380895    2.412469


........................................................................
.............................. CYCLE   43 ..............................
........................................................................

 iter      E             dE          RMSdq      gap      omega  full diag
   1    -74.1185216 -0.741185E+02  0.573E-02    3.22       0.0  T
   2    -74.1185251 -0.345144E-05  0.336E-02    3.22       1.0  T
   3    -74.1185253 -0.214921E-06  0.601E-03    3.22       2.5  T
   4    -74.1185258 -0.466075E-06  0.223E-03    3.22       6.8  T
   5    -74.1185258 -0.140314E-07  0.113E-03    3.22      13.5  T
   6    -74.1185258 -0.316749E-08  0.451E-04    3.22      33.8  T
   7    -74.1185258 -0.126671E-08  0.205E-04    3.22      74.3  T
     SCC iter.                  ...        0 min,  0.146 sec
     gradient                   ...        0 min,  0.042 sec
 * total energy  :   -73.3959474 Eh     change       -0.3006172E-03 Eh
   gradient norm :     0.0120586 Eh/α   predicted     0.0000000E+00 (-100.00%)
   displ. norm   :     0.1402298 α      lambda       -0.4623755E-03
   maximum displ.:     0.0724608 α      in ANC's #22, #33, #23, ...

........................................................................
.............................. CYCLE   44 ..............................
........................................................................

 iter      E             dE          RMSdq      gap      omega  full diag
   1    -74.1186811 -0.741187E+02  0.546E-02    3.21       0.0  T
   2    -74.1186822 -0.108863E-05  0.325E-02    3.21       1.0  T
   3    -74.1186824 -0.192080E-06  0.277E-03    3.21       5.5  T
   4    -74.1186825 -0.728854E-07  0.154E-03    3.21       9.9  T
   5    -74.1186825 -0.307804E-08  0.726E-04    3.21      21.0  T
   6    -74.1186825 -0.277096E-08  0.287E-04    3.21      53.1  T
     SCC iter.                  ...        0 min,  0.069 sec
     gradient                   ...        0 min,  0.079 sec
 * total energy  :   -73.3963123 Eh     change       -0.3649068E-03 Eh
   gradient norm :     0.0055434 Eh/α   predicted    -0.2357351E-03 ( -35.40%)
   displ. norm   :     0.3505875 α      lambda       -0.6887883E-03
   maximum displ.:     0.1862912 α      in ANC's #22, #21, #18, ...

........................................................................
.............................. CYCLE   45 ..............................
........................................................................

 iter      E             dE          RMSdq      gap      omega  full diag
   1    -74.1157754 -0.741158E+02  0.109E-01    3.21       0.0  T
   2    -74.1157814 -0.602323E-05  0.656E-02    3.21       1.0  T
   3    -74.1157826 -0.120636E-05  0.709E-03    3.21       2.2  T
   4    -74.1157828 -0.245482E-06  0.421E-03    3.21       3.6  T
   5    -74.1157828  0.380049E-08  0.160E-03    3.21       9.6  T
   6    -74.1157829 -0.282745E-07  0.581E-04    3.21      26.3  T
   7    -74.1157829 -0.374330E-08  0.188E-04    3.21      81.0  T
     SCC iter.                  ...        0 min,  0.141 sec
     gradient                   ...        0 min,  0.040 sec
 * total energy  :   -73.3967336 Eh     change       -0.4212647E-03 Eh
   gradient norm :     0.0142583 Eh/α   predicted    -0.3867531E-03 (  -8.19%)
   displ. norm   :     0.1623267 α      lambda       -0.3186415E-03
   maximum displ.:     0.0594239 α      in ANC's #4, #22, #3, ...

........................................................................
.............................. CYCLE   46 ..............................
........................................................................

 iter      E             dE          RMSdq      gap      omega  full diag
   1    -74.1168459 -0.741168E+02  0.401E-02    3.21       0.0  T
   2    -74.1168462 -0.296659E-06  0.239E-02    3.21       1.0  T
   3    -74.1168463 -0.875647E-07  0.195E-03    3.21       7.8  T
   4    -74.1168463 -0.110703E-07  0.894E-04    3.21      17.1  T
   5    -74.1168463 -0.743817E-08  0.425E-04    3.21      35.9  T
     SCC iter.                  ...        0 min,  0.065 sec
     gradient                   ...        0 min,  0.083 sec
 * total energy  :   -73.3969914 Eh     change       -0.2577821E-03 Eh
   gradient norm :     0.0105384 Eh/α   predicted    -0.1635303E-03 ( -36.56%)
   displ. norm   :     0.3977643 α      lambda       -0.6264484E-03
   maximum displ.:     0.1562506 α      in ANC's #4, #22, #8, ...

........................................................................
.............................. CYCLE   47 ..............................
........................................................................

 iter      E             dE          RMSdq      gap      omega  full diag
   1    -74.1188385 -0.741188E+02  0.790E-02    3.21       0.0  T
   2    -74.1188396 -0.110264E-05  0.474E-02    3.21       1.0  T
   3    -74.1188401 -0.431207E-06  0.455E-03    3.21       3.4  T
   4    -74.1188401 -0.687531E-07  0.248E-03    3.21       6.1  T
   5    -74.1188401 -0.231727E-07  0.593E-04    3.21      25.7  T
   6    -74.1188402 -0.383068E-08  0.267E-04    3.21      57.2  T
     SCC iter.                  ...        0 min,  0.110 sec
     gradient                   ...        0 min,  0.042 sec
 * total energy  :   -73.3974504 Eh     change       -0.4590044E-03 Eh
   gradient norm :     0.0081134 Eh/α   predicted    -0.3628052E-03 ( -20.96%)
   displ. norm   :     0.4370776 α      lambda       -0.6552227E-03
   maximum displ.:     0.1969841 α      in ANC's #4, #8, #3, ...

........................................................................
.............................. CYCLE   48 ..............................
........................................................................

 iter      E             dE          RMSdq      gap      omega  full diag
   1    -74.1225619 -0.741226E+02  0.745E-02    3.21       0.0  T
   2    -74.1225634 -0.144536E-05  0.451E-02    3.21       1.0  T
   3    -74.1225640 -0.619320E-06  0.400E-03    3.21       3.8  T
   4    -74.1225641 -0.647334E-07  0.251E-03    3.21       6.1  T
   5    -74.1225641 -0.139838E-07  0.116E-03    3.21      13.1  T
   6    -74.1225641 -0.996390E-08  0.410E-04    3.21      37.2  T
   7    -74.1225641 -0.184802E-08  0.160E-04    3.21      95.3  T
     SCC iter.                  ...        0 min,  0.138 sec
     gradient                   ...        0 min,  0.044 sec
 * total energy  :   -73.3977605 Eh     change       -0.3101220E-03 Eh
   gradient norm :     0.0125185 Eh/α   predicted    -0.3902020E-03 (  25.82%)
   displ. norm   :     0.6299861 α      lambda       -0.8370393E-03
   maximum displ.:     0.2593699 α      in ANC's #22, #4, #8, ...

........................................................................
.............................. CYCLE   49 ..............................
........................................................................

 iter      E             dE          RMSdq      gap      omega  full diag
   1    -74.1112498 -0.741112E+02  0.146E-01    3.21       0.0  T
   2    -74.1112621 -0.122177E-04  0.899E-02    3.20       1.0  T
   3    -74.1112657 -0.359395E-05  0.149E-02    3.20       1.0  T
   4    -74.1112661 -0.459825E-06  0.921E-03    3.20       1.7  T
   5    -74.1112661  0.350638E-07  0.223E-03    3.20       6.9  T
   6    -74.1112662 -0.867500E-07  0.878E-04    3.20      17.4  T
   7    -74.1112662 -0.138763E-07  0.269E-04    3.20      56.7  T
     SCC iter.                  ...        0 min,  0.129 sec
     gradient                   ...        0 min,  0.047 sec
 * total energy  :   -73.3972897 Eh     change        0.4708123E-03 Eh
   gradient norm :     0.0351468 Eh/α   predicted    -0.5846289E-03 (-224.17%)
   displ. norm   :     0.2300429 α      lambda       -0.2273817E-02
   maximum displ.:     0.1087834 α      in ANC's #22, #19, #18, ...

........................................................................
.............................. CYCLE   50 ..............................
........................................................................

 iter      E             dE          RMSdq      gap      omega  full diag
   1    -74.1219197 -0.741219E+02  0.998E-02    3.20       0.0  T
   2    -74.1219263 -0.661167E-05  0.624E-02    3.20       1.0  T
   3    -74.1219281 -0.180868E-05  0.120E-02    3.20       1.3  T
   4    -74.1219283 -0.252777E-06  0.693E-03    3.20       2.2  T
   5    -74.1219283  0.710654E-08  0.168E-03    3.20       9.1  T
   6    -74.1219284 -0.470259E-07  0.660E-04    3.20      23.1  T
   7    -74.1219284 -0.609836E-08  0.193E-04    3.20      79.2  T
     SCC iter.                  ...        0 min,  0.133 sec
     gradient                   ...        0 min,  0.046 sec
 * total energy  :   -73.3980858 Eh     change       -0.7960645E-03 Eh
   gradient norm :     0.0166499 Eh/α   predicted    -0.1197074E-02 (  50.37%)
   displ. norm   :     0.1444438 α      lambda       -0.6666681E-03
   maximum displ.:     0.0622481 α      in ANC's #19, #23, #15, ...

........................................................................
.............................. CYCLE   51 ..............................
........................................................................

 iter      E             dE          RMSdq      gap      omega  full diag
   1    -74.1216637 -0.741217E+02  0.651E-02    3.20       0.0  T
[...]
C5-C4-C3-C2=359.88            C5-C4-C3-H8=179.89            C21-C4-C3-C2=179.91           C21-C4-C3-H8=359.92           
C6-C5-C4-C3=  0.55            C6-C5-C4-C21=180.51           H9-C5-C4-C3=180.42            H9-C5-C4-C21=  0.39           
C5-C6-C1-C2=359.72            C5-C6-C1-C11=179.27           H10-C6-C1-C2=178.48           H10-C6-C1-C11=358.03          
C1-C6-C5-C4=359.65            C1-C6-C5-H9=179.78            H10-C6-C5-C4=180.89           H10-C6-C5-H9=  1.02           

 CMA Distance (Angstroems)
 ---------------------------
R(CMA):  5.9123
           -------------------------------------------------
          |                Final Singlepoint                |
           -------------------------------------------------

          ...................................................
          :                      SETUP                      :
          :.................................................:
          :  # basis functions                 106          :
          :  # atomic orbitals                 106          :
          :  # shells                           64          :
          :  # electrons                       122          :
          :  max. iterations                   250          :
          :  Hamiltonian                  GFN2-xTB          :
          :  restarted?                      false          :
          :  GBSA solvation                   true          :
          :  PC potential                    false          :
          :  electronic temp.          300.0000000     K    :
          :  accuracy                    1.0000000          :
          :  -> integral cutoff          0.2500000E+02      :
          :  -> integral neglect         0.1000000E-07      :
          :  -> SCF convergence          0.1000000E-05 Eh   :
          :  -> wf. convergence          0.1000000E-03 e    :
          :  Broyden damping             0.4000000          :
          :  net charge                          2          :
          :  unpaired electrons                  0          :
          ...................................................

 iter      E             dE          RMSdq      gap      omega  full diag
   1    -74.1395702 -0.741396E+02  0.985E-03    3.34       0.0  T
   2    -74.1395703 -0.574376E-07  0.586E-03    3.34       2.6  T
   3    -74.1395703  0.109183E-08  0.908E-04    3.34      16.8  T
   4    -74.1395703 -0.122126E-07  0.451E-04    3.34      33.8  T

   *** convergence criteria satisfied after 4 iterations ***

         #    Occupation            Energy/Eh            Energy/eV
      -------------------------------------------------------------
         1        2.0000           -0.7600241             -20.6813
       ...           ...                  ...                  ...
        55        2.0000           -0.4545317             -12.3684
        56        2.0000           -0.4445292             -12.0963
        57        2.0000           -0.4378492             -11.9145
        58        2.0000           -0.4355832             -11.8528
        59        2.0000           -0.4326610             -11.7733
        60        2.0000           -0.4281385             -11.6502
        61        2.0000           -0.4259060             -11.5895 (HOMO)
        62                         -0.3030273              -8.2458 (LUMO)
        63                         -0.2490666              -6.7774
        64                         -0.2448098              -6.6616
        65                         -0.1828497              -4.9756
        66                         -0.1687033              -4.5907
       ...                                ...                  ...
       106                          1.1033435              30.0235
      -------------------------------------------------------------
                  HL-Gap            0.1228788 Eh            3.3437 eV
             Fermi-level           -0.3644666 Eh           -9.9176 eV

 SCC (total)                   0 d,  0 h,  0 min,  0.182 sec
 SCC setup                      ...        0 min,  0.008 sec (  4.238%)
 Dispersion                     ...        0 min,  0.008 sec (  4.403%)
 classical contributions        ...        0 min,  0.004 sec (  2.031%)
 integral evaluation            ...        0 min,  0.025 sec ( 13.538%)
 iterations                     ...        0 min,  0.088 sec ( 48.424%)
 molecular gradient             ...        0 min,  0.049 sec ( 26.816%)
 printout                       ...        0 min,  0.001 sec (  0.529%)

         :::::::::::::::::::::::::::::::::::::::::::::::::::::
         ::                     SUMMARY                     ::
         :::::::::::::::::::::::::::::::::::::::::::::::::::::
         :: total energy             -73.418188350201 Eh    ::
         :: total w/o Gsasa/hb       -73.354054282825 Eh    ::
         :: gradient norm              0.001756561864 Eh/a0 ::
         :: HOMO-LUMO gap              3.343701343854 eV    ::
         ::.................................................::
         :: SCC energy               -74.139279183689 Eh    ::
         :: -> isotropic ES            0.583625104025 Eh    ::
         :: -> anisotropic ES         -0.035863025060 Eh    ::
         :: -> anisotropic XC          0.009084662759 Eh    ::
         :: -> dispersion             -0.035893484434 Eh    ::
         :: -> Gsolv                  -0.357748880756 Eh    ::
         ::    -> Gelec               -0.293614813380 Eh    ::
         ::    -> Gsasa                0.002229965535 Eh    ::
         ::    -> Ghb                 -0.067444792609 Eh    ::
         ::    -> Gshift               0.001080759698 Eh    ::
         :: repulsion energy           0.721090833488 Eh    ::
         :: add. restraining           0.000000000000 Eh    ::
         :: total charge               2.000000000000 e     ::
         :::::::::::::::::::::::::::::::::::::::::::::::::::::

           -------------------------------------------------
          |                Property Printout                |
           -------------------------------------------------

    * Orbital Energies and Occupations

         #    Occupation            Energy/Eh            Energy/eV
      -------------------------------------------------------------
         1        2.0000           -0.7600241             -20.6813
       ...           ...                  ...                  ...
        49        2.0000           -0.4668516             -12.7037
        50        2.0000           -0.4655848             -12.6692
        51        2.0000           -0.4634009             -12.6098
        52        2.0000           -0.4586667             -12.4810
        53        2.0000           -0.4581663             -12.4673
        54        2.0000           -0.4553122             -12.3897
        55        2.0000           -0.4545317             -12.3684
        56        2.0000           -0.4445292             -12.0963
        57        2.0000           -0.4378492             -11.9145
        58        2.0000           -0.4355832             -11.8528
        59        2.0000           -0.4326610             -11.7733
        60        2.0000           -0.4281385             -11.6502
        61        2.0000           -0.4259060             -11.5895 (HOMO)
        62                         -0.3030273              -8.2458 (LUMO)
        63                         -0.2490666              -6.7774
        64                         -0.2448098              -6.6616
        65                         -0.1828497              -4.9756
        66                         -0.1687033              -4.5907
        67                         -0.0978339              -2.6622
        68                         -0.0112439              -0.3060
        69                          0.0275622               0.7500
        70                          0.0297606               0.8098
        71                          0.0339426               0.9236
        72                          0.0582625               1.5854
       ...                                ...                  ...
       106                          1.1033435              30.0235
      -------------------------------------------------------------
                  HL-Gap            0.1228788 Eh            3.3437 eV
             Fermi-level           -0.3644666 Eh           -9.9176 eV

     #   Z          covCN         q      C6AA      α(0)
     1   6 C        2.973    -0.009    28.235     8.716
     2   6 C        2.920    -0.023    28.577     8.766
     3   6 C        2.922    -0.018    28.448     8.747
     4   6 C        2.973    -0.011    28.274     8.722
     5   6 C        2.919    -0.024    28.595     8.769
     6   6 C        2.921    -0.031    28.784     8.798
     7   1 H        0.926     0.069     2.100     2.266
     8   1 H        0.926     0.052     2.291     2.367
     9   1 H        0.926     0.097     1.811     2.105
    10   1 H        0.926     0.134     1.502     1.916
    11   6 C        2.723     0.359    20.902     7.484
    12   8 O        0.856    -0.428    22.249     6.324
    13   8 O        1.703    -0.261    18.326     5.780
    14   6 C        3.697     0.062    19.702     6.349
    15   6 C        3.750    -0.147    23.411     6.900
    16   1 H        0.924     0.079     1.992     2.207
    17   1 H        0.924     0.066     2.127     2.281
    18   1 H        0.925     0.074     2.041     2.234
    19   1 H        0.925     0.108     1.716     2.049
    20   1 H        0.925     0.057     2.238     2.340
    21   6 C        2.697     0.364    20.828     7.469
    22   8 O        0.856    -0.505    23.899     6.554
    23   8 O        1.660    -0.404    20.929     6.176
    24   1 H        0.804     0.411     0.464     1.070
    25  48 Cd       4.096     0.450   190.808    26.514
    26   8 O        2.277    -0.551    23.958     6.611
    27   1 H        0.805     0.400     0.484     1.092
    28   1 H        0.805     0.398     0.488     1.097
    29   8 O        2.313    -0.540    23.709     6.576
    30   1 H        0.818     0.391     0.501     1.110
    31   1 H        0.805     0.402     0.480     1.088
    32   8 O        2.294    -0.534    23.583     6.559
    33   1 H        0.805     0.399     0.487     1.096
    34   1 H        0.805     0.396     0.492     1.102
    35   8 O        2.266    -0.567    24.328     6.661
    36   1 H        0.805     0.395     0.493     1.103
    37   1 H        0.805     0.401     0.482     1.091
    38   8 O        2.309    -0.532    23.530     6.551
    39   1 H        0.805     0.396     0.491     1.101
    40   1 H        0.809     0.390     0.502     1.113
    41   8 O        2.267    -0.563    24.241     6.650
    42   1 H        0.805     0.400     0.485     1.094
    43   1 H        0.805     0.398     0.488     1.098

 Mol. C6AA /au·bohr⁶  :      17696.189980
 Mol. C8AA /au·bohr⁸  :     476915.500319
 Mol. α(0) /au        :        205.696491


Wiberg/Mayer (AO) data.
largest (>0.10) Wiberg bond orders for each atom

 ---------------------------------------------------------------------------
     #   Z sym  total        # sym  WBO       # sym  WBO       # sym  WBO
 ---------------------------------------------------------------------------
     1   6 C    3.987 --     6 C    1.381     2 C    1.379    11 C    1.007
     2   6 C    3.986 --     3 C    1.464     1 C    1.379     7 H    0.965
                             5 C    0.105
     3   6 C    3.989 --     2 C    1.464     4 C    1.380     8 H    0.966
                             6 C    0.104
     4   6 C    3.984 --     5 C    1.381     3 C    1.380    21 C    1.006
     5   6 C    3.980 --     6 C    1.460     4 C    1.381     9 H    0.960
                             2 C    0.105
     6   6 C    3.974 --     5 C    1.460     1 C    1.381    10 H    0.942
                             3 C    0.104
     7   1 H    0.995 --     2 C    0.965
     8   1 H    0.997 --     3 C    0.966
     9   1 H    0.990 --     5 C    0.960
    10   1 H    0.981 --     6 C    0.942
    11   6 C    3.916 --    12 O    1.618    13 O    1.200     1 C    1.007
    12   8 O    2.034 --    11 C    1.618    13 O    0.170
    13   8 O    2.350 --    11 C    1.200    14 C    0.908    12 O    0.170
    14   6 C    3.897 --    15 C    1.011    17 H    0.972    16 H    0.965
                            13 O    0.908
    15   6 C    3.979 --    14 C    1.011    20 H    0.985    18 H    0.979
                            19 H    0.966
    16   1 H    0.993 --    14 C    0.965
    17   1 H    0.995 --    14 C    0.972
    18   1 H    0.994 --    15 C    0.979
    19   1 H    0.988 --    15 C    0.966
    20   1 H    0.997 --    15 C    0.985
    21   6 C    3.904 --    22 O    1.672    23 O    1.176     4 C    1.006
    22   8 O    1.960 --    21 C    1.672    23 O    0.172
    23   8 O    2.195 --    21 C    1.176    24 H    0.806    22 O    0.172
    24   1 H    0.830 --    23 O    0.806
    25  48 Cd   2.149 --    29 O    0.352    38 O    0.342    32 O    0.333
                            26 O    0.326    41 O    0.314    35 O    0.308
    26   8 O    2.096 --    28 H    0.831    27 H    0.829    25 Cd   0.326
    27   1 H    0.839 --    26 O    0.829
    28   1 H    0.841 --    26 O    0.831
    29   8 O    2.131 --    31 H    0.826    30 H    0.795    25 Cd   0.352
    30   1 H    0.847 --    29 O    0.795
    31   1 H    0.838 --    29 O    0.826
    32   8 O    2.122 --    34 H    0.833    33 H    0.831    25 Cd   0.333
    33   1 H    0.841 --    32 O    0.831
    34   1 H    0.843 --    32 O    0.833
    35   8 O    2.066 --    36 H    0.834    37 H    0.828    25 Cd   0.308
    36   1 H    0.844 --    35 O    0.834
    37   1 H    0.839 --    35 O    0.828
    38   8 O    2.127 --    39 H    0.832    40 H    0.821    25 Cd   0.342
    39   1 H    0.843 --    38 O    0.832
    40   1 H    0.847 --    38 O    0.821
    41   8 O    2.073 --    43 H    0.832    42 H    0.829    25 Cd   0.314
    42   1 H    0.840 --    41 O    0.829
    43   1 H    0.842 --    41 O    0.832
 ---------------------------------------------------------------------------

Topologies differ in total number of bonds
Writing topology from bond orders to xtbtopo.mol

molecular dipole:
                 x           y           z       tot (Debye)
 q only:       26.373      -5.300      -2.155
   full:       25.939      -5.378      -2.103      67.543
molecular quadrupole (traceless):
                xx          xy          yy          xz          yz          zz
 q only:      301.406    -100.887    -127.751     -36.463       9.798    -173.655
  q+dip:      302.885    -102.421    -125.640     -35.964      11.122    -177.245
   full:      300.643    -101.863    -127.199     -36.129      10.652    -173.443

           -------------------------------------------------
          |                Geometry Summary                 |
           -------------------------------------------------

      molecular mass/u    :      414.6876625
   center of mass at/Å    :        3.9890103      -1.0627401      -0.3193754
  moments of inertia/u·Å² :        0.1397356E+04   0.4941031E+04   0.5895327E+04
rotational constants/cm⁻¹ :        0.1206395E-01   0.3411764E-02   0.2859491E-02

 * 40 selected distances

     #   Z          #   Z                                           value/Å
     1   6 C        2   6 C                                       1.3946082
     2   6 C        3   6 C                                       1.3798227
     3   6 C        4   6 C                                       1.3944176
     4   6 C        5   6 C                                       1.3935060
     1   6 C        6   6 C                                       1.3949880
     5   6 C        6   6 C                                       1.3801722
     2   6 C        7   1 H                                       1.0783161
     3   6 C        8   1 H                                       1.0793757
     5   6 C        9   1 H                                       1.0774889
     6   6 C       10   1 H                                       1.0777045
    11   6 C       12   8 O                                       1.2229869
    11   6 C       13   8 O                                       1.3139039
    13   8 O       14   6 C                                       1.4403663
    14   6 C       15   6 C                                       1.5217021
    14   6 C       16   1 H                                       1.0929818
    14   6 C       17   1 H                                       1.0902523
    15   6 C       18   1 H                                       1.0848911
    15   6 C       19   1 H                                       1.0866662
    15   6 C       20   1 H                                       1.0870026
    21   6 C       22   8 O                                       1.2168053
    21   6 C       23   8 O                                       1.3239960
    23   8 O       24   1 H                                       0.9754289
    25  48 Cd      26   8 O                                       2.1852493
    26   8 O       27   1 H                                       0.9678297
    26   8 O       28   1 H                                       0.9678787
    25  48 Cd      29   8 O                                       2.1037313
    29   8 O       30   1 H                                       0.9785117
    29   8 O       31   1 H                                       0.9678160
    25  48 Cd      32   8 O                                       2.1533841
Note: The following floating-point exceptions are signalling: IEEE_UNDERFLOW_FLAG IEEE_DENORMAL
normal termination of xtb
    32   8 O       33   1 H                                       0.9692477
    32   8 O       34   1 H                                       0.9679522
    25  48 Cd      35   8 O                                       2.2034873 (max)
    35   8 O       36   1 H                                       0.9668258
    35   8 O       37   1 H                                       0.9664493 (min)
    25  48 Cd      38   8 O                                       2.1176947
    38   8 O       39   1 H                                       0.9665132
    38   8 O       40   1 H                                       0.9720924
    25  48 Cd      41   8 O                                       2.2026366
    41   8 O       42   1 H                                       0.9668910
    41   8 O       43   1 H                                       0.9672637

 * 5 distinct bonds (by element types)

   Z      Z             #   av. dist./Å        max./Å        min./Å
   1 H    6 C           9     1.0838532     1.0929818     1.0774889
   6 C    6 C           7     1.4084595     1.5217021     1.3798227
   1 H    8 O          13     0.9692846     0.9785117     0.9664493
   6 C    8 O           5     1.3036117     1.4403663     1.2168053
   8 O   48 Cd          6     2.1610306     2.2034873     2.1037313


optimized geometry written to: xtbopt.xyz


           -------------------------------------------------
          | TOTAL ENERGY              -73.418188350201 Eh   |
          | GRADIENT NORM               0.001756561864 Eh/α |
          | HOMO-LUMO GAP               3.343701343854 eV   |
           -------------------------------------------------

------------------------------------------------------------------------
 * finished run on 2026/05/26 at 02:26:47.158     
------------------------------------------------------------------------
 total:
 * wall-time:     0 d,  0 h,  0 min, 58.840 sec
 *  cpu-time:     0 d,  0 h,  1 min, 35.755 sec
 * ratio c/w:     1.627 speedup
 SCF:
 * wall-time:     0 d,  0 h,  0 min,  0.313 sec
 *  cpu-time:     0 d,  0 h,  0 min,  0.583 sec
 * ratio c/w:     1.865 speedup
 ANC optimizer:
 * wall-time:     0 d,  0 h,  0 min, 58.488 sec
 *  cpu-time:     0 d,  0 h,  1 min, 35.095 sec
 * ratio c/w:     1.626 speedup

