      -----------------------------------------------------------      
     |                   =====================                   |     
     |                           x T B                           |     
     |                   =====================                   |     
     |                         S. Grimme                         |     
     |          Mulliken Center for Theoretical Chemistry        |     
     |                    University of Bonn                     |     
      -----------------------------------------------------------      

   * xtb version 6.7.1 (edcfbbe) compiled by 'conda@c0858423619e' on 2025-09-04

   xtb is free software: you can redistribute it and/or modify it under
   the terms of the GNU Lesser General Public License as published by
   the Free Software Foundation, either version 3 of the License, or
   (at your option) any later version.
   
   xtb is distributed in the hope that it will be useful,
   but WITHOUT ANY WARRANTY; without even the implied warranty of
   MERCHANTABILITY or FITNESS FOR A PARTICULAR PURPOSE.  See the
   GNU Lesser General Public License for more details.
   
   Cite this work as:
   * C. Bannwarth, E. Caldeweyher, S. Ehlert, A. Hansen, P. Pracht,
     J. Seibert, S. Spicher, S. Grimme, WIREs Comput. Mol. Sci., 2020, 11,
     e01493. DOI: 10.1002/wcms.1493
   
   for GFN2-xTB:
   * C. Bannwarth, S. Ehlert and S. Grimme., J. Chem. Theory Comput., 2019,
     15, 1652-1671. DOI: 10.1021/acs.jctc.8b01176
   for GFN1-xTB:
   * S. Grimme, C. Bannwarth, P. Shushkov, J. Chem. Theory Comput., 2017,
     13, 1989-2009. DOI: 10.1021/acs.jctc.7b00118
   for GFN0-xTB:
   * P. Pracht, E. Caldeweyher, S. Ehlert, S. Grimme, ChemRxiv, 2019, preprint.
     DOI: 10.26434/chemrxiv.8326202.v1
   for GFN-FF:
   * S. Spicher and S. Grimme, Angew. Chem. Int. Ed., 2020, 59, 15665-15673.
     DOI: 10.1002/anie.202004239
   
   for ALPB and GBSA implicit solvation:
   * S. Ehlert, M. Stahn, S. Spicher, S. Grimme, J. Chem. Theory Comput.,
     2021, 17, 4250-4261. DOI: 10.1021/acs.jctc.1c00471
   
   for ddCOSMO and CPCM-X implicit solvation:
   * M. Stahn, S. Ehlert, S. Grimme, J. Phys. Chem. A,
     2023, XX, XXXX-XXXX. DOI: 10.1021/acs.jpca.3c04382
   
   for DFT-D4:
   * E. Caldeweyher, C. Bannwarth and S. Grimme, J. Chem. Phys., 2017,
     147, 034112. DOI: 10.1063/1.4993215
   * E. Caldeweyher, S. Ehlert, A. Hansen, H. Neugebauer, S. Spicher,
     C. Bannwarth and S. Grimme, J. Chem. Phys., 2019, 150, 154122.
     DOI: 10.1063/1.5090222
   * E. Caldeweyher, J.-M. Mewes, S. Ehlert and S. Grimme, Phys. Chem. Chem. Phys.
     2020, 22, 8499-8512. DOI: 10.1039/D0CP00502A
   
   for sTDA-xTB:
   * S. Grimme and C. Bannwarth, J. Chem. Phys., 2016, 145, 054103.
     DOI: 10.1063/1.4959605
   
   in the mass-spec context:
   * V. Asgeirsson, C. Bauer and S. Grimme, Chem. Sci., 2017, 8, 4879.
     DOI: 10.1039/c7sc00601b
   * J. Koopman and S. Grimme, ACS Omega 2019, 4, 12, 15120-15133.
     DOI: 10.1021/acsomega.9b02011
   
   for metadynamics refer to:
   * S. Grimme, J. Chem. Theory Comput., 2019, 155, 2847-2862
     DOI: 10.1021/acs.jctc.9b00143
   
   for SPH calculations refer to:
   * S. Spicher and S. Grimme, J. Chem. Theory Comput., 2021, 17, 1701-1714
     DOI: 10.1021/acs.jctc.0c01306
   
   for ONIOM refer to:
   * C. Plett, A. Katbashev, S. Ehlert, S. Grimme, M. Bursch,
     Phys. Chem. Chem. Phys., 2023, 25, 17860-17868. DOI: 10.1039/D3CP02178E
   
   for DIPRO refer to:
   * J. Kohn, N. Gildemeister, S. Grimme, D. Fazzi, A. Hansen,
     J. Chem. Phys., 2023, just accepted.
   
   for PTB refer to:
   * S. Grimme, M. Mueller, A. Hansen, J. Chem. Phys., 2023, 158, 124111.
     DOI: 10.1063/5.0137838
   
   with help from (in alphabetical order)
   P. Atkinson, C. Bannwarth, F. Bohle, G. Brandenburg, E. Caldeweyher
   M. Checinski, S. Dohm, S. Ehlert, S. Ehrlich, I. Gerasimov, C. Hölzer
   A. Katbashev, J. Kohn, J. Koopman, C. Lavigne, S. Lehtola, F. März, M. Müller,
   F. Musil, H. Neugebauer, J. Pisarek, C. Plett, P. Pracht, F. Pultar,
   J. Seibert, P. Shushkov, S. Spicher, M. Stahn, M. Steiner, T. Strunk,
   J. Stückrath, T. Rose, and J. Unsleber
   
 * started run on 2026/05/26 at 02:24:17.754     
   ID    Z sym.   atoms
    1    6 C      1-6, 11, 14, 15, 21
    2    1 H      7-10, 16-20, 24, 27, 28, 30, 31, 33, 34, 36, 37, 39, 40,
                  42, 43
    3    8 O      12, 13, 22, 23, 26, 29, 32, 35, 38, 41
    4   48 Cd     25

           -------------------------------------------------
          |                Calculation Setup                |
           -------------------------------------------------

          program call               : /content/xtb_env/bin/xtb input.xyz --gfn 2 --opt tight --alpb water --chrg 2 --uhf 0
          hostname                   : 01035569fb61
          coordinate file            : input.xyz
          omp threads                :                     2


molecular fragmentation (1/2 indicates fragments):
1111111111111111111111111111111111111222222
# atoms in fragment 1/2:    37     6
 fragment masses (1/2) :      378.66       36.03
CMA distance (Bohr)    :   5.113
constraining FC (au)   :  0.0500

           -------------------------------------------------
          |                 G F N 2 - x T B                 |
           -------------------------------------------------

        Reference                      10.1021/acs.jctc.8b01176
      * Hamiltonian:
        H0-scaling (s, p, d)           1.850000    2.230000    2.230000
        zeta-weighting                 0.500000
      * Dispersion:
        s8                             2.700000
        a1                             0.520000
        a2                             5.000000
        s9                             5.000000
      * Repulsion:
        kExp                           1.500000    1.000000
        rExp                           1.000000
      * Coulomb:
        alpha                          2.000000
        third order                    shell-resolved
        anisotropic                    true
        a3                             3.000000
        a5                             4.000000
        cn-shift                       1.200000
        cn-exp                         4.000000
        max-rad                        5.000000

      * Solvation model:               ALPB
        Solvent                        water
        Parameter file                 internal GFN2-xTB/ALPB
        Dielectric constant                8.0200E+01
        Reference state                gsolv [1 M gas/solution]
        Free energy shift                  1.0808E-03 Eh       6.7819E-01 kcal/mol
        Temperature                        2.9815E+02 K
        Density                            1.0000E+00 kg/L
        Solvent mass                       1.8000E+01 g/mol
        Interaction kernel             P16
        Born radius scaling (c1)           1.4744E+00
        Born radii integrator          GBOBC
        Born offset                        0.0000E+00 a0       0.0000E+00 AA
        H-bond correction              true
        Ion screening                  false
        Surface tension                    1.0000E-05 Eh       1.5569E+01 dyn/cm
        Grid points                               230 per atom

          ...................................................
          :                      SETUP                      :
          :.................................................:
          :  # basis functions                 106          :
          :  # atomic orbitals                 106          :
          :  # shells                           64          :
          :  # electrons                       122          :
          :  max. iterations                   250          :
          :  Hamiltonian                  GFN2-xTB          :
          :  restarted?                      false          :
          :  GBSA solvation                   true          :
          :  PC potential                    false          :
          :  electronic temp.          300.0000000     K    :
          :  accuracy                    1.0000000          :
          :  -> integral cutoff          0.2500000E+02      :
          :  -> integral neglect         0.1000000E-07      :
          :  -> SCF convergence          0.1000000E-05 Eh   :
          :  -> wf. convergence          0.1000000E-03 e    :
          :  Broyden damping             0.4000000          :
          :  net charge                          2          :
          :  unpaired electrons                  0          :
          ...................................................

 iter      E             dE          RMSdq      gap      omega  full diag
   1    -69.2894183 -0.692894E+02  0.769E+00    0.23       0.0  T
   2    -70.6361092 -0.134669E+01  0.630E+00    1.51       1.0  T
   3    -71.1515863 -0.515477E+00  0.366E+00    0.22       1.0  T
   4    -71.1443921  0.719417E-02  0.261E+00    0.14       1.0  T
   5    -70.9717706  0.172621E+00  0.279E+00    0.12       1.0  T
   6    -71.2434789 -0.271708E+00  0.110E+00    0.40       1.0  T
   7    -71.2525770 -0.909803E-02  0.639E-01    0.33       1.0  T
   8    -71.2612900 -0.871308E-02  0.352E-01    0.18       1.0  T
   9    -71.2617711 -0.481096E-03  0.308E-01    0.07       1.0  T
  10    -71.2635363 -0.176518E-02  0.200E-01    0.09       1.0  T
  11    -71.2646867 -0.115036E-02  0.472E-02    0.11       1.0  T
  12    -71.2642636  0.423116E-03  0.110E-01    0.09       1.0  T
  13    -71.2646669 -0.403325E-03  0.357E-02    0.11       1.0  T
  14    -71.2647069 -0.400104E-04  0.126E-02    0.11       1.2  T
  15    -71.2647126 -0.567239E-05  0.330E-03    0.11       4.6  T
  16    -71.2647126 -0.122380E-07  0.286E-03    0.11       5.3  T
  17    -71.2647129 -0.289304E-06  0.561E-04    0.11      27.2  T
  18    -71.2647128  0.341625E-07  0.103E-03    0.11      14.9  T
  19    -71.2647129 -0.351599E-07  0.314E-04    0.11      48.6  T

   *** convergence criteria satisfied after 19 iterations ***

         #    Occupation            Energy/Eh            Energy/eV
      -------------------------------------------------------------
         1        2.0000           -1.3234427             -36.0127
       ...           ...                  ...                  ...
        55        2.0000           -0.3491268              -9.5002
        56        2.0000           -0.3485597              -9.4848
        57        2.0000           -0.3466207              -9.4320
        58        2.0000           -0.2754342              -7.4949
        59        2.0000           -0.2595774              -7.0635
        60        2.0000           -0.2204288              -5.9982
        61        1.7711           -0.1774603              -4.8289 (HOMO)
        62        0.2289           -0.1735731              -4.7232 (LUMO)
        63        0.0000           -0.1626069              -4.4248
        64                         -0.1586463              -4.3170
        65                         -0.0888741              -2.4184
        66                         -0.0690452              -1.8788
       ...                                ...                  ...
       106                        141.3768411            3847.0597
      -------------------------------------------------------------
                  HL-Gap            0.0038873 Eh            0.1058 eV
             Fermi-level           -0.1755167 Eh           -4.7761 eV

 SCC (total)                   0 d,  0 h,  0 min,  2.219 sec
 SCC setup                      ...        0 min,  0.008 sec (  0.352%)
 Dispersion                     ...        0 min,  0.008 sec (  0.361%)
 classical contributions        ...        0 min,  0.003 sec (  0.156%)
 integral evaluation            ...        0 min,  0.026 sec (  1.169%)
 iterations                     ...        0 min,  2.034 sec ( 91.630%)
 molecular gradient             ...        0 min,  0.128 sec (  5.781%)
 printout                       ...        0 min,  0.012 sec (  0.549%)

         :::::::::::::::::::::::::::::::::::::::::::::::::::::
         ::                     SUMMARY                     ::
         :::::::::::::::::::::::::::::::::::::::::::::::::::::
         :: total energy             213.264365302251 Eh    ::
         :: total w/o Gsasa/hb       213.328240409279 Eh    ::
         :: gradient norm           1903.200593887770 Eh/a0 ::
         :: HOMO-LUMO gap              0.105777766675 eV    ::
         ::.................................................::
         :: SCC energy               -71.264695172950 Eh    ::
         :: -> isotropic ES            1.584390191992 Eh    ::
         :: -> anisotropic ES          0.036507487631 Eh    ::
         :: -> anisotropic XC         -0.007529618972 Eh    ::
         :: -> dispersion             -0.047408396383 Eh    ::
         :: -> Gsolv                  -0.859525295667 Eh    ::
         ::    -> Gelec               -0.795650188639 Eh    ::
         ::    -> Gsasa                0.001958781015 Eh    ::
         ::    -> Ghb                 -0.066914647741 Eh    ::
         ::    -> Gshift               0.001080759698 Eh    ::
         :: repulsion energy         284.529060475201 Eh    ::
         :: add. restraining           0.000000000000 Eh    ::
         :: total charge               2.000000000000 e     ::
         :::::::::::::::::::::::::::::::::::::::::::::::::::::

      ----------------------------------------------------------- 
     |                   =====================                   |
     |                        A N C O P T                        |
     |                   =====================                   |
     |               Approximate Normal Coordinate               |
     |                Rational Function Optimizer                |
      ----------------------------------------------------------- 
      ----------------------------------------------------------- 
     |                   =====================                   |
     |                        A N C O P T                        |
     |                   =====================                   |
     |               Approximate Normal Coordinate               |
     |                Rational Function Optimizer                |
      ----------------------------------------------------------- 

          ...................................................
          :                      SETUP                      :
          :.................................................:
          :   optimization level             tight          :
          :   max. optcycles                   215          :
          :   ANC micro-cycles                  20          :
          :   degrees of freedom               123          :
          :.................................................:
          :   RF solver                   davidson          :
          :   write xtbopt.log                true          :
          :   linear?                        false          :
          :   energy convergence         0.1000000E-05 Eh   :
          :   grad. convergence          0.8000000E-03 Eh/α :
          :   maxmium RF displ.          1.0000000          :
          :   Hlow (freq-cutoff)         0.1000000E-01      :
          :   Hmax (freq-cutoff)         5.0000000          :
          :   S6 in model hess.         20.0000000          :
          ...................................................

generating ANC from exact Hessian ...
Using Lindh-Hessian (1995)
 Shifting diagonal of input Hessian by    9.7892992933811332E-003
 Lowest  eigenvalues of input Hessian
    0.000000    0.000000    0.000000    0.000000    0.000000    0.000000
    0.010000    0.010292    0.010674    0.011131    0.011550    0.011761
    0.012594    0.013067    0.013399    0.014157    0.015006    0.015948
 Highest eigenvalues
   21.811007   27.634152  185.633001  831.160161 1147.063371 1275.852821


........................................................................
.............................. CYCLE    1 ..............................
........................................................................

 iter      E             dE          RMSdq      gap      omega  full diag
   1    -71.2647129 -0.712647E+02  0.305E-04    0.11       0.0  T
   2    -71.2647127  0.207138E-06  0.229E-03    0.11       6.6  T
   3    -71.2647129 -0.210214E-06  0.863E-05    0.11     176.7  T
   4    -71.2647129 -0.261892E-09  0.283E-05    0.11     538.7  T
     SCC iter.                  ...        0 min,  0.340 sec
     gradient                   ...        0 min,  0.095 sec
================
 final structure:
================
43
 xtb: 6.7.1 (edcfbbe)
C            0.39333333000000       -0.68125000000000        0.00000000000000
C           -0.30166667000000        0.52252531000000        0.00000000000000
C           -1.69166667000000        0.52252531000000        0.00000000000000
C           -2.38666667000000       -0.68125000000000        0.00000000000000
C           -1.69166667000000       -1.88502531000000        0.00000000000000
C           -0.30166667000000       -1.88502531000000        0.00000000000000
H            0.24333333000000        1.46649300000000        0.00000000000000
H           -2.23666667000000        1.46649300000000        0.00000000000000
H           -2.23666667000000       -2.82899300000000        0.00000000000000
H            0.24333333000000       -2.82899300000000        0.00000000000000
C            1.87333333000000       -0.68125000000000        0.00000000000000
O            3.07333333000000       -0.68125000000000        0.00000000000000
O            1.87333333000000        0.56875000000000        0.00000000000000
C            1.87333333000000        1.96875000000000        0.00000000000000
C            3.32333333000000        1.96875000000000        0.00000000000000
H            1.87333333000000        1.96875000000000        1.00000000000000
H            1.87333333000000        1.96875000000000       -1.00000000000000
H            4.22333333000000        1.96875000000000        0.00000000000000
H            3.32333333000000        1.96875000000000        1.00000000000000
H            3.32333333000000        1.96875000000000       -1.00000000000000
C           -3.86666667000000       -0.68125000000000        0.00000000000000
O           -5.06666667000000       -0.68125000000000        0.00000000000000
O           -3.86666667000000       -1.93125000000000        0.00000000000000
H           -3.86666667000000       -2.88125000000000        0.00000000000000
Cd           4.31127081000000        1.94587050000000        0.00000000000000
O            6.66127081000000        1.94587050000000        0.00000000000000
H            7.28127081000000        2.69587050000000        0.00000000000000
H            7.28127081000000        1.19587050000000        0.00000000000000
O            1.96127081000000        1.94587050000000        0.00000000000000
H            1.34127081000000        2.69587050000000        0.00000000000000
H            1.34127081000000        1.19587050000000        0.00000000000000
O            4.31127081000000        4.29587050000000        0.00000000000000
H            5.06127081000000        4.91587050000000        0.00000000000000
H            3.56127081000000        4.91587050000000        0.00000000000000
O            4.31127081000000       -0.40412950000000        0.00000000000000
H            5.06127081000000       -1.02412950000000        0.00000000000000
H            3.56127081000000       -1.02412950000000        0.00000000000000
O            4.31127081000000        1.94587050000000        2.35000000000000
H            5.06127081000000        1.94587050000000        2.97000000000000
H            3.56127081000000        1.94587050000000        2.97000000000000
O            4.31127081000000        1.94587050000000       -2.35000000000000
H            5.06127081000000        1.94587050000000       -2.97000000000000
H            3.56127081000000        1.94587050000000       -2.97000000000000

 Bond Distances (Angstroems)
 ---------------------------
C1-C2=1.3900         C1-C6=1.3900         C1-C11=1.4800        C2-C1=1.3900         C2-C3=1.3900         C2-H7=1.0900         
C3-C2=1.3900         C3-C4=1.3900         C3-H8=1.0900         C4-C3=1.3900         C4-C5=1.3900         C4-C21=1.4800        
C5-C4=1.3900         C5-C6=1.3900         C5-H9=1.0900         C6-C1=1.3900         C6-C5=1.3900         C6-H10=1.0900        
H7-C2=1.0900         H8-C3=1.0900         H9-C5=1.0900         H10-C6=1.0900        C11-C1=1.4800        C11-O12=1.2000       
C11-O13=1.2500       O12-C11=1.2000       O12-O35=1.2686       O12-H37=0.5964       O13-C11=1.2500       O13-C14=1.4000       
O13-O29=1.3799       O13-H31=0.8224       C14-O13=1.4000       C14-C15=1.4500       C14-H16=1.0000       C14-H17=1.0000       
C14-Cd25=2.4380      C14-O29=0.0909       C14-H30=0.9010       C14-H31=0.9383       C15-C14=1.4500       C15-H18=0.9000       
C15-H19=1.0000       C15-H20=1.0000       C15-Cd25=0.9882      C15-O29=1.3623       H16-C14=1.0000       H16-O29=1.0041       
H17-C14=1.0000       H17-O29=1.0041       H18-C15=0.9000       H18-Cd25=0.0909      H19-C15=1.0000       H19-Cd25=1.4059      
H20-C15=1.0000       H20-Cd25=1.4059      C21-C4=1.4800        C21-O22=1.2000       C21-O23=1.2500       O22-C21=1.2000       
O23-C21=1.2500       O23-H24=0.9500       H24-O23=0.9500       Cd25-C14=2.4380      Cd25-C15=0.9882      Cd25-H18=0.0909      
Cd25-H19=1.4059      Cd25-H20=1.4059      Cd25-O26=2.3500      Cd25-O29=2.3500      Cd25-O32=2.3500      Cd25-O35=2.3500      
Cd25-O38=2.3500      Cd25-O41=2.3500      O26-Cd25=2.3500      O26-H27=0.9731       O26-H28=0.9731       H27-O26=0.9731       
H28-O26=0.9731       O29-O13=1.3799       O29-C14=0.0909       O29-C15=1.3623       O29-H16=1.0041       O29-H17=1.0041       
O29-Cd25=2.3500      O29-H30=0.9731       O29-H31=0.9731       H30-C14=0.9010       H30-O29=0.9731       H31-O13=0.8224       
H31-C14=0.9383       H31-O29=0.9731       O32-Cd25=2.3500      O32-H33=0.9731       O32-H34=0.9731       H33-O32=0.9731       
H34-O32=0.9731       O35-O12=1.2686       O35-Cd25=2.3500      O35-H36=0.9731       O35-H37=0.9731       H36-O35=0.9731       
H37-O12=0.5964       H37-O35=0.9731       O38-Cd25=2.3500      O38-H39=0.9731       O38-H40=0.9731       H39-O38=0.9731       
H40-O38=0.9731       O41-Cd25=2.3500      O41-H42=0.9731       O41-H43=0.9731       H42-O41=0.9731       H43-O41=0.9731       
 C  H  Rav=1.0090 sigma=0.0708  Rmin=0.9000  Rmax=1.0900    11
 C  C  Rav=1.4167 sigma=0.0386  Rmin=1.3900  Rmax=1.4800     9
 O  H  Rav=0.9444 sigma=0.0949  Rmin=0.5964  Rmax=1.0041    17
 O  C  Rav=1.1076 sigma=0.4212  Rmin=0.0909  Rmax=1.4000     7
 O  O  Rav=1.3243 sigma=0.0557  Rmin=1.2686  Rmax=1.3799     2
 Cd H  Rav=0.9676 sigma=0.6199  Rmin=0.0909  Rmax=1.4059     3
 Cd C  Rav=1.7131 sigma=0.7249  Rmin=0.9882  Rmax=2.4380     2
 Cd O  Rav=2.3500 sigma=0.0000  Rmin=2.3500  Rmax=2.3500     6

 selected bond angles (degree)
 --------------------
C6-C1-C2=120.00                C11-C1-C2=120.00               C11-C1-C6=120.00               C3-C2-C1=120.00                
H7-C2-C1=120.00                H7-C2-C3=120.00                C4-C3-C2=120.00                H8-C3-C2=120.00                
H8-C3-C4=120.00                C5-C4-C3=120.00                C21-C4-C3=120.00               C21-C4-C5=120.00               
C6-C5-C4=120.00                H9-C5-C4=120.00                H9-C5-C6=120.00                C5-C6-C1=120.00                
H10-C6-C1=120.00               H10-C6-C5=120.00               

 selected dihedral angles (degree)
 ---------------------------------
C3-C2-C1-C6=  0.00            C3-C2-C1-C11=180.00           H7-C2-C1-C6=180.00            H7-C2-C1-C11=  0.00           
C4-C3-C2-C1=  0.00            C4-C3-C2-H7=180.00            H8-C3-C2-C1=180.00            H8-C3-C2-H7=  0.00            
C5-C4-C3-C2=  0.00            C5-C4-C3-H8=180.00            C21-C4-C3-C2=180.00           C21-C4-C3-H8=  0.00           
C6-C5-C4-C3=  0.00            C6-C5-C4-C21=180.00           H9-C5-C4-C3=180.00            H9-C5-C4-C21=  0.00           
C5-C6-C1-C2=  0.00            C5-C6-C1-C11=180.00           H10-C6-C1-C2=180.00           H10-C6-C1-C11=  0.00          
C1-C6-C5-C4=  0.00            C1-C6-C5-H9=180.00            H10-C6-C5-C4=180.00           H10-C6-C5-H9=  0.00           

 CMA Distance (Angstroems)
 ---------------------------
R(CMA):  2.7059
           -------------------------------------------------
          |                Final Singlepoint                |
           -------------------------------------------------

          ...................................................
          :                      SETUP                      :
          :.................................................:
          :  # basis functions                 106          :
          :  # atomic orbitals                 106          :
          :  # shells                           64          :
          :  # electrons                       122          :
          :  max. iterations                   250          :
          :  Hamiltonian                  GFN2-xTB          :
          :  restarted?                      false          :
          :  GBSA solvation                   true          :
          :  PC potential                    false          :
          :  electronic temp.          300.0000000     K    :
          :  accuracy                    1.0000000          :
          :  -> integral cutoff          0.2500000E+02      :
          :  -> integral neglect         0.1000000E-07      :
          :  -> SCF convergence          0.1000000E-05 Eh   :
          :  -> wf. convergence          0.1000000E-03 e    :
          :  Broyden damping             0.4000000          :
          :  net charge                          2          :
          :  unpaired electrons                  0          :
          ...................................................

 iter      E             dE          RMSdq      gap      omega  full diag
   1    -71.2647129 -0.712647E+02  0.294E-05    0.11       0.0  T
   2    -71.2647129  0.189840E-08  0.217E-04    0.11      70.4  T
   3    -71.2647129 -0.192847E-08  0.102E-05    0.11    1491.2  T

   *** convergence criteria satisfied after 3 iterations ***

         #    Occupation            Energy/Eh            Energy/eV
      -------------------------------------------------------------
         1        2.0000           -1.3234429             -36.0127
       ...           ...                  ...                  ...
        55        2.0000           -0.3491268              -9.5002
        56        2.0000           -0.3485602              -9.4848
        57        2.0000           -0.3466205              -9.4320
        58        2.0000           -0.2754343              -7.4949
        59        2.0000           -0.2595776              -7.0635
        60        2.0000           -0.2204286              -5.9982
        61        1.7709           -0.1774594              -4.8289 (HOMO)
        62        0.2291           -0.1735737              -4.7232 (LUMO)
        63        0.0000           -0.1626070              -4.4248
        64                         -0.1586465              -4.3170
        65                         -0.0888739              -2.4184
        66                         -0.0690454              -1.8788
       ...                                ...                  ...
       106                        141.3768410            3847.0597
      -------------------------------------------------------------
                  HL-Gap            0.0038857 Eh            0.1057 eV
             Fermi-level           -0.1755166 Eh           -4.7760 eV

 SCC (total)                   0 d,  0 h,  0 min,  0.693 sec
 SCC setup                      ...        0 min,  0.003 sec (  0.414%)
 Dispersion                     ...        0 min,  0.004 sec (  0.526%)
 classical contributions        ...        0 min,  0.000 sec (  0.025%)
 integral evaluation            ...        0 min,  0.030 sec (  4.286%)
 iterations                     ...        0 min,  0.533 sec ( 76.888%)
 molecular gradient             ...        0 min,  0.113 sec ( 16.240%)
Note: The following floating-point exceptions are signalling: IEEE_UNDERFLOW_FLAG IEEE_DENORMAL
ERROR STOP 

Error termination. Backtrace:
#0  0x585962331926 in ???
#1  0x58596225fec4 in ???
#2  0x58596224c272 in ???
#3  0x7f881797ad8f in ???
#4  0x7f881797ae3f in ???
#5  0x58596224c316 in ???
#6  0xffffffffffffffff in ???
abnormal termination of xtb
 printout                       ...        0 min,  0.011 sec (  1.611%)

         :::::::::::::::::::::::::::::::::::::::::::::::::::::
         ::                     SUMMARY                     ::
         :::::::::::::::::::::::::::::::::::::::::::::::::::::
         :: total energy             213.264365298896 Eh    ::
         :: total w/o Gsasa/hb       213.328240285621 Eh    ::
         :: gradient norm           1903.200595640769 Eh/a0 ::
         :: HOMO-LUMO gap              0.105735386212 eV    ::
         ::.................................................::
         :: SCC energy               -71.264695176305 Eh    ::
         :: -> isotropic ES            1.584416410401 Eh    ::
         :: -> anisotropic ES          0.036507093167 Eh    ::
         :: -> anisotropic XC         -0.007529654311 Eh    ::
         :: -> dispersion             -0.047408333128 Eh    ::
         :: -> Gsolv                  -0.859525961851 Eh    ::
         ::    -> Gelec               -0.795650975127 Eh    ::
         ::    -> Gsasa                0.001958781015 Eh    ::
         ::    -> Ghb                 -0.066914527438 Eh    ::
         ::    -> Gshift               0.001080759698 Eh    ::
         :: repulsion energy         284.529060475201 Eh    ::
         :: add. restraining           0.000000000000 Eh    ::
         :: total charge               2.000000000000 e     ::
         :::::::::::::::::::::::::::::::::::::::::::::::::::::


last geometry written to: xtblast.xyz

########################################################################
[ERROR] Program stopped due to fatal error
-5- Geometry optimization failed
-4- xtb_geoopt: Trying to recover from failed geometry optimization
-3- xtb_geoopt: Geometry optimization did not converge
-2- optimizer_ancopt: Could not relax/optimize structure
-1- optimizer_relax: |grad| > 500, something is totally wrong!
########################################################################
