      -----------------------------------------------------------      
     |                   =====================                   |     
     |                           x T B                           |     
     |                   =====================                   |     
     |                         S. Grimme                         |     
     |          Mulliken Center for Theoretical Chemistry        |     
     |                    University of Bonn                     |     
      -----------------------------------------------------------      

   * xtb version 6.7.1 (edcfbbe) compiled by 'conda@c0858423619e' on 2025-09-04

   xtb is free software: you can redistribute it and/or modify it under
   the terms of the GNU Lesser General Public License as published by
   the Free Software Foundation, either version 3 of the License, or
   (at your option) any later version.
   
   xtb is distributed in the hope that it will be useful,
   but WITHOUT ANY WARRANTY; without even the implied warranty of
   MERCHANTABILITY or FITNESS FOR A PARTICULAR PURPOSE.  See the
   GNU Lesser General Public License for more details.
   
   Cite this work as:
   * C. Bannwarth, E. Caldeweyher, S. Ehlert, A. Hansen, P. Pracht,
     J. Seibert, S. Spicher, S. Grimme, WIREs Comput. Mol. Sci., 2020, 11,
     e01493. DOI: 10.1002/wcms.1493
   
   for GFN2-xTB:
   * C. Bannwarth, S. Ehlert and S. Grimme., J. Chem. Theory Comput., 2019,
     15, 1652-1671. DOI: 10.1021/acs.jctc.8b01176
   for GFN1-xTB:
   * S. Grimme, C. Bannwarth, P. Shushkov, J. Chem. Theory Comput., 2017,
     13, 1989-2009. DOI: 10.1021/acs.jctc.7b00118
   for GFN0-xTB:
   * P. Pracht, E. Caldeweyher, S. Ehlert, S. Grimme, ChemRxiv, 2019, preprint.
     DOI: 10.26434/chemrxiv.8326202.v1
   for GFN-FF:
   * S. Spicher and S. Grimme, Angew. Chem. Int. Ed., 2020, 59, 15665-15673.
     DOI: 10.1002/anie.202004239
   
   for ALPB and GBSA implicit solvation:
   * S. Ehlert, M. Stahn, S. Spicher, S. Grimme, J. Chem. Theory Comput.,
     2021, 17, 4250-4261. DOI: 10.1021/acs.jctc.1c00471
   
   for ddCOSMO and CPCM-X implicit solvation:
   * M. Stahn, S. Ehlert, S. Grimme, J. Phys. Chem. A,
     2023, XX, XXXX-XXXX. DOI: 10.1021/acs.jpca.3c04382
   
   for DFT-D4:
   * E. Caldeweyher, C. Bannwarth and S. Grimme, J. Chem. Phys., 2017,
     147, 034112. DOI: 10.1063/1.4993215
   * E. Caldeweyher, S. Ehlert, A. Hansen, H. Neugebauer, S. Spicher,
     C. Bannwarth and S. Grimme, J. Chem. Phys., 2019, 150, 154122.
     DOI: 10.1063/1.5090222
   * E. Caldeweyher, J.-M. Mewes, S. Ehlert and S. Grimme, Phys. Chem. Chem. Phys.
     2020, 22, 8499-8512. DOI: 10.1039/D0CP00502A
   
   for sTDA-xTB:
   * S. Grimme and C. Bannwarth, J. Chem. Phys., 2016, 145, 054103.
     DOI: 10.1063/1.4959605
   
   in the mass-spec context:
   * V. Asgeirsson, C. Bauer and S. Grimme, Chem. Sci., 2017, 8, 4879.
     DOI: 10.1039/c7sc00601b
   * J. Koopman and S. Grimme, ACS Omega 2019, 4, 12, 15120-15133.
     DOI: 10.1021/acsomega.9b02011
   
   for metadynamics refer to:
   * S. Grimme, J. Chem. Theory Comput., 2019, 155, 2847-2862
     DOI: 10.1021/acs.jctc.9b00143
   
   for SPH calculations refer to:
   * S. Spicher and S. Grimme, J. Chem. Theory Comput., 2021, 17, 1701-1714
     DOI: 10.1021/acs.jctc.0c01306
   
   for ONIOM refer to:
   * C. Plett, A. Katbashev, S. Ehlert, S. Grimme, M. Bursch,
     Phys. Chem. Chem. Phys., 2023, 25, 17860-17868. DOI: 10.1039/D3CP02178E
   
   for DIPRO refer to:
   * J. Kohn, N. Gildemeister, S. Grimme, D. Fazzi, A. Hansen,
     J. Chem. Phys., 2023, just accepted.
   
   for PTB refer to:
   * S. Grimme, M. Mueller, A. Hansen, J. Chem. Phys., 2023, 158, 124111.
     DOI: 10.1063/5.0137838
   
   with help from (in alphabetical order)
   P. Atkinson, C. Bannwarth, F. Bohle, G. Brandenburg, E. Caldeweyher
   M. Checinski, S. Dohm, S. Ehlert, S. Ehrlich, I. Gerasimov, C. Hölzer
   A. Katbashev, J. Kohn, J. Koopman, C. Lavigne, S. Lehtola, F. März, M. Müller,
   F. Musil, H. Neugebauer, J. Pisarek, C. Plett, P. Pracht, F. Pultar,
   J. Seibert, P. Shushkov, S. Spicher, M. Stahn, M. Steiner, T. Strunk,
   J. Stückrath, T. Rose, and J. Unsleber
   
 * started run on 2026/05/26 at 02:24:53.363     
   ID    Z sym.   atoms
    1    6 C      1-6, 11, 14, 15, 21
    2    1 H      7-10, 16-20, 24, 27, 28, 30, 31, 33, 34, 36, 37, 39, 40,
                  42, 43
    3    8 O      12, 13, 22, 23, 26, 29, 32, 35, 38, 41
    4   48 Cd     25

           -------------------------------------------------
          |                Calculation Setup                |
           -------------------------------------------------

          program call               : /content/xtb_env/bin/xtb input.xyz --gfn 2 --opt tight --alpb water --chrg 2 --uhf 0
          hostname                   : 01035569fb61
          coordinate file            : input.xyz
          omp threads                :                     2


molecular fragmentation (1/2 indicates fragments):
1111111111111111111111111111111111111222222
# atoms in fragment 1/2:    37     6
 fragment masses (1/2) :      378.66       36.03
CMA distance (Bohr)    :   6.917
constraining FC (au)   :  0.0500

           -------------------------------------------------
          |                 G F N 2 - x T B                 |
           -------------------------------------------------

        Reference                      10.1021/acs.jctc.8b01176
      * Hamiltonian:
        H0-scaling (s, p, d)           1.850000    2.230000    2.230000
        zeta-weighting                 0.500000
      * Dispersion:
        s8                             2.700000
        a1                             0.520000
        a2                             5.000000
        s9                             5.000000
      * Repulsion:
        kExp                           1.500000    1.000000
        rExp                           1.000000
      * Coulomb:
        alpha                          2.000000
        third order                    shell-resolved
        anisotropic                    true
        a3                             3.000000
        a5                             4.000000
        cn-shift                       1.200000
        cn-exp                         4.000000
        max-rad                        5.000000

      * Solvation model:               ALPB
        Solvent                        water
        Parameter file                 internal GFN2-xTB/ALPB
        Dielectric constant                8.0200E+01
        Reference state                gsolv [1 M gas/solution]
        Free energy shift                  1.0808E-03 Eh       6.7819E-01 kcal/mol
        Temperature                        2.9815E+02 K
        Density                            1.0000E+00 kg/L
        Solvent mass                       1.8000E+01 g/mol
        Interaction kernel             P16
        Born radius scaling (c1)           1.4744E+00
        Born radii integrator          GBOBC
        Born offset                        0.0000E+00 a0       0.0000E+00 AA
        H-bond correction              true
        Ion screening                  false
        Surface tension                    1.0000E-05 Eh       1.5569E+01 dyn/cm
        Grid points                               230 per atom

          ...................................................
          :                      SETUP                      :
          :.................................................:
          :  # basis functions                 106          :
          :  # atomic orbitals                 106          :
          :  # shells                           64          :
          :  # electrons                       122          :
          :  max. iterations                   250          :
          :  Hamiltonian                  GFN2-xTB          :
          :  restarted?                      false          :
          :  GBSA solvation                   true          :
          :  PC potential                    false          :
          :  electronic temp.          300.0000000     K    :
          :  accuracy                    1.0000000          :
          :  -> integral cutoff          0.2500000E+02      :
          :  -> integral neglect         0.1000000E-07      :
          :  -> SCF convergence          0.1000000E-05 Eh   :
          :  -> wf. convergence          0.1000000E-03 e    :
          :  Broyden damping             0.4000000          :
          :  net charge                          2          :
          :  unpaired electrons                  0          :
          ...................................................

 iter      E             dE          RMSdq      gap      omega  full diag
   1    -71.6359572 -0.716360E+02  0.690E+00    0.02       0.0  T
   2    -72.5406698 -0.904713E+00  0.440E+00    0.67       1.0  T
   3    -72.1566991  0.383971E+00  0.411E+00    0.49       1.0  T
   4    -72.6525110 -0.495812E+00  0.249E+00    0.97       1.0  T
   5    -72.5343399  0.118171E+00  0.237E+00    0.14       1.0  T
   6    -72.6725235 -0.138184E+00  0.169E+00    1.07       1.0  T
   7    -72.7243854 -0.518619E-01  0.112E+00    0.29       1.0  T
   8    -72.7655968 -0.412114E-01  0.799E-01    0.08       1.0  T
   9    -72.7654939  0.102902E-03  0.780E-01    0.03       1.0  T
  10    -72.7397213  0.257727E-01  0.824E-01    0.24       1.0  T
  11    -72.3523241  0.387397E+00  0.288E+00    0.17       1.0  T
  12    -72.7491918 -0.396868E+00  0.688E-01    0.18       1.0  T
  13    -72.7726659 -0.234741E-01  0.389E-01    0.12       1.0  T
  14    -72.7826629 -0.999702E-02  0.159E-01    0.08       1.0  T
  15    -72.7764820  0.618091E-02  0.371E-01    0.06       1.0  T
  16    -72.7816124 -0.513043E-02  0.219E-01    0.07       1.0  T
  17    -72.7835633 -0.195088E-02  0.326E-02    0.07       1.0  T
  18    -72.7836085 -0.451962E-04  0.262E-02    0.07       1.0  T
  19    -72.7836418 -0.333131E-04  0.474E-03    0.07       3.2  T
  20    -72.7836399  0.187024E-05  0.691E-03    0.07       2.2  T
  21    -72.7836422 -0.222137E-05  0.422E-03    0.07       3.6  T
  22    -72.7836434 -0.126475E-05  0.451E-04    0.07      33.8  T
  23    -72.7836434 -0.104582E-07  0.186E-04    0.07      82.0  T
  24    -72.7836434  0.295767E-07  0.740E-04    0.07      20.6  T

   *** convergence criteria satisfied after 24 iterations ***

         #    Occupation            Energy/Eh            Energy/eV
      -------------------------------------------------------------
         1        2.0000           -0.8896400             -24.2083
       ...           ...                  ...                  ...
        55        2.0000           -0.3938926             -10.7184
        56        2.0000           -0.3873205             -10.5395
        57        2.0000           -0.3769668             -10.2578
        58        2.0000           -0.3701668             -10.0728
        59        2.0000           -0.2994028              -8.1472
        60        1.7902           -0.2647063              -7.2030
        61        1.6879           -0.2642731              -7.1912 (HOMO)
        62        0.5218           -0.2616802              -7.1207 (LUMO)
        63                         -0.2091188              -5.6904
        64                         -0.2028841              -5.5208
        65                         -0.1851927              -5.0393
        66                         -0.1340557              -3.6478
       ...                                ...                  ...
       106                         16.5491638             450.3257
      -------------------------------------------------------------
                  HL-Gap            0.0025929 Eh            0.0706 eV
             Fermi-level           -0.2626694 Eh           -7.1476 eV

 SCC (total)                   0 d,  0 h,  0 min,  1.023 sec
 SCC setup                      ...        0 min,  0.006 sec (  0.543%)
 Dispersion                     ...        0 min,  0.008 sec (  0.776%)
 classical contributions        ...        0 min,  0.003 sec (  0.256%)
 integral evaluation            ...        0 min,  0.027 sec (  2.639%)
 iterations                     ...        0 min,  0.931 sec ( 90.924%)
 molecular gradient             ...        0 min,  0.048 sec (  4.647%)
 printout                       ...        0 min,  0.002 sec (  0.210%)

         :::::::::::::::::::::::::::::::::::::::::::::::::::::
         ::                     SUMMARY                     ::
         :::::::::::::::::::::::::::::::::::::::::::::::::::::
         :: total energy             -68.515217380359 Eh    ::
         :: total w/o Gsasa/hb       -68.443420754803 Eh    ::
         :: gradient norm             19.725977281693 Eh/a0 ::
         :: HOMO-LUMO gap              0.070555562657 eV    ::
         ::.................................................::
         :: SCC energy               -72.783860856970 Eh    ::
         :: -> isotropic ES            0.773095797584 Eh    ::
         :: -> anisotropic ES          0.012959528858 Eh    ::
         :: -> anisotropic XC         -0.017181362620 Eh    ::
         :: -> dispersion             -0.036760449295 Eh    ::
         :: -> Gsolv                  -0.497825551866 Eh    ::
         ::    -> Gelec               -0.426028926310 Eh    ::
         ::    -> Gsasa                0.000858611357 Eh    ::
         ::    -> Ghb                 -0.073735996611 Eh    ::
         ::    -> Gshift               0.001080759698 Eh    ::
         :: repulsion energy           4.268643476611 Eh    ::
         :: add. restraining           0.000000000000 Eh    ::
         :: total charge               2.000000000005 e     ::
         :::::::::::::::::::::::::::::::::::::::::::::::::::::

      ----------------------------------------------------------- 
     |                   =====================                   |
     |                        A N C O P T                        |
     |                   =====================                   |
     |               Approximate Normal Coordinate               |
     |                Rational Function Optimizer                |
      ----------------------------------------------------------- 
      ----------------------------------------------------------- 
     |                   =====================                   |
     |                        A N C O P T                        |
     |                   =====================                   |
     |               Approximate Normal Coordinate               |
     |                Rational Function Optimizer                |
      ----------------------------------------------------------- 

          ...................................................
          :                      SETUP                      :
          :.................................................:
          :   optimization level             tight          :
          :   max. optcycles                   215          :
          :   ANC micro-cycles                  20          :
          :   degrees of freedom               123          :
          :.................................................:
          :   RF solver                   davidson          :
          :   write xtbopt.log                true          :
          :   linear?                        false          :
          :   energy convergence         0.1000000E-05 Eh   :
          :   grad. convergence          0.8000000E-03 Eh/α :
          :   maxmium RF displ.          1.0000000          :
          :   Hlow (freq-cutoff)         0.1000000E-01      :
          :   Hmax (freq-cutoff)         5.0000000          :
          :   S6 in model hess.         20.0000000          :
          ...................................................

generating ANC from exact Hessian ...
Using Lindh-Hessian (1995)
 Shifting diagonal of input Hessian by    1.0127100307963564E-002
 Lowest  eigenvalues of input Hessian
    0.010000    0.010041    0.010075    0.010078    0.000000    0.000000
    0.000000    0.000000    0.000000    0.000000    0.010196    0.010235
    0.010299    0.010347    0.010433    0.010479    0.010587    0.010597
 Highest eigenvalues
    2.852812    2.917868    3.438015    6.279068    9.772446   30.313766


........................................................................
.............................. CYCLE    1 ..............................
........................................................................

 iter      E             dE          RMSdq      gap      omega  full diag
   1    -72.7836434 -0.727836E+02  0.313E-04    0.07       0.0  T
   2    -72.7836411  0.235692E-05  0.607E-03    0.07       2.5  T
   3    -72.7836434 -0.233998E-05  0.554E-04    0.07      27.5  T
   4    -72.7836434 -0.209858E-07  0.155E-04    0.07      98.6  T
   5    -72.7836434 -0.128652E-08  0.466E-05    0.07     327.6  T
     SCC iter.                  ...        0 min,  0.074 sec
     gradient                   ...        0 min,  0.094 sec
 * total energy  :   -68.5152174 Eh     change       -0.3109393E-07 Eh
   gradient norm :    19.7259937 Eh/α   predicted     0.0000000E+00 (-100.00%)
   displ. norm   :     0.8894165 α      lambda       -0.1693990E+02
   maximum displ.:     0.8141424 α      in ANC's #122, #118, #120, ...

........................................................................
.............................. CYCLE    2 ..............................
........................................................................

 iter      E             dE          RMSdq      gap      omega  full diag
   1    -72.8285696 -0.728286E+02  0.227E+00    0.20       0.0  T
   2    -72.4423998  0.386170E+00  0.347E+00    0.90       1.0  T
   3    -72.8838204 -0.441421E+00  0.144E+00    0.08       1.0  T
   4    -72.8590801  0.247403E-01  0.114E+00    0.05       1.0  T
   5    -72.8576289  0.145127E-02  0.134E+00    0.19       1.0  T
   6    -72.6029275  0.254701E+00  0.260E+00    0.15       1.0  T
   7    -72.8857218 -0.282794E+00  0.113E+00    0.21       1.0  T
   8    -72.8925391 -0.681732E-02  0.960E-01    0.14       1.0  T
   9    -72.9198857 -0.273466E-01  0.138E-01    0.03       1.0  T
  10    -72.9187338  0.115193E-02  0.215E-01    0.03       1.0  T
  11    -72.9203012 -0.156743E-02  0.811E-02    0.02       1.0  T
  12    -72.9204299 -0.128746E-03  0.689E-02    0.01       1.0  T
  13    -72.9205254 -0.954975E-04  0.370E-02    0.02       1.0  T
  14    -72.9205569 -0.314182E-04  0.310E-02    0.02       1.0  T
  15    -72.9205915 -0.346126E-04  0.239E-03    0.02       6.4  T
  16    -72.9205916 -0.108942E-06  0.192E-03    0.02       7.9  T
  17    -72.9205917 -0.115892E-06  0.512E-04    0.02      29.8  T
  18    -72.9205917  0.754383E-08  0.742E-04    0.02      20.6  T
     SCC iter.                  ...        0 min,  0.306 sec
     gradient                   ...        0 min,  0.044 sec
 * total energy  :   -71.8761180 Eh     change       -0.3360901E+01 Eh
   gradient norm :     1.1465612 Eh/α   predicted    -0.1569963E+02 ( 367.13%)
   displ. norm   :     0.5963553 α      lambda       -0.5550958E+00
   maximum displ.:     0.2100402 α      in ANC's #77, #75, #59, ...

........................................................................
.............................. CYCLE    3 ..............................
........................................................................

 iter      E             dE          RMSdq      gap      omega  full diag
   1    -72.7382924 -0.727383E+02  0.289E+00    0.13       0.0  T
   2    -72.7740508 -0.357584E-01  0.279E+00    0.84       1.0  T
   3    -73.0360892 -0.262038E+00  0.160E+00    0.59       1.0  T
   4    -73.0567184 -0.206292E-01  0.135E+00    0.52       1.0  T
   5    -73.0721792 -0.154608E-01  0.102E+00    0.43       1.0  T
   6    -72.6489722  0.423207E+00  0.342E+00    0.63       1.0  T
   7    -72.7571962 -0.108224E+00  0.291E+00    0.17       1.0  T
   8    -73.0786602 -0.321464E+00  0.747E-01    0.22       1.0  T
   9    -73.0581697  0.204905E-01  0.103E+00    0.00       1.0  T
  10    -73.0968830 -0.387133E-01  0.110E-01    0.08       1.0  T
  11    -73.0970274 -0.144388E-03  0.896E-02    0.08       1.0  T
  12    -73.0973004 -0.272964E-03  0.199E-02    0.07       1.0  T
  13    -73.0971981  0.102280E-03  0.566E-02    0.07       1.0  T
  14    -73.0972089 -0.108347E-04  0.541E-02    0.07       1.0  T
  15    -73.0973119 -0.102947E-03  0.769E-03    0.07       2.0  T
  16    -73.0973024  0.943159E-05  0.180E-02    0.07       1.0  T
  17    -73.0973139 -0.114811E-04  0.114E-03    0.07      13.4  T
  18    -73.0973132  0.689061E-06  0.453E-03    0.07       3.4  T
  19    -73.0973139 -0.714011E-06  0.747E-04    0.07      20.4  T
  20    -73.0973140 -0.193473E-07  0.130E-04    0.07     117.0  T
     SCC iter.                  ...        0 min,  0.281 sec
     gradient                   ...        0 min,  0.085 sec
 * total energy  :   -72.2593143 Eh     change       -0.3831964E+00 Eh
   gradient norm :     0.4978495 Eh/α   predicted    -0.3762604E+00 (  -1.81%)
   displ. norm   :     0.6864589 α      lambda       -0.2651620E+00
   maximum displ.:     0.2505487 α      in ANC's #36, #60, #59, ...

........................................................................
.............................. CYCLE    4 ..............................
........................................................................

 iter      E             dE          RMSdq      gap      omega  full diag
   1    -73.2525226 -0.732525E+02  0.809E-01    0.22       0.0  T
   2    -72.7591620  0.493361E+00  0.355E+00    0.50       1.0  T
   3    -73.2598423 -0.500680E+00  0.569E-01    0.18       1.0  T
   4    -73.2626813 -0.283904E-02  0.427E-01    0.06       1.0  T
   5    -73.2667392 -0.405789E-02  0.190E-01    0.12       1.0  T
   6    -73.2680455 -0.130632E-02  0.454E-02    0.09       1.0  T
   7    -73.2680844 -0.389187E-04  0.267E-02    0.09       1.0  T
   8    -73.2680865 -0.205503E-05  0.243E-02    0.10       1.0  T
   9    -73.2681051 -0.185836E-04  0.585E-03    0.09       2.6  T
  10    -73.2681057 -0.597752E-06  0.251E-03    0.09       6.1  T
  11    -73.2681051  0.528459E-06  0.415E-03    0.10       3.7  T
  12    -73.2681056 -0.489799E-06  0.186E-03    0.09       8.2  T
  13    -73.2681058 -0.125059E-06  0.168E-04    0.09      90.5  T
  14    -73.2681058  0.117716E-08  0.223E-04    0.09      68.2  T
     SCC iter.                  ...        0 min,  0.146 sec
     gradient                   ...        0 min,  0.048 sec
 * total energy  :   -72.4842217 Eh     change       -0.2249074E+00 Eh
   gradient norm :     0.3399759 Eh/α   predicted    -0.1950569E+00 ( -13.27%)
   displ. norm   :     0.7928942 α      lambda       -0.2307020E+00
   maximum displ.:     0.2887407 α      in ANC's #56, #59, #36, ...

........................................................................
.............................. CYCLE    5 ..............................
........................................................................

 iter      E             dE          RMSdq      gap      omega  full diag
   1    -73.4188040 -0.734188E+02  0.709E-01    0.51       0.0  T
   2    -73.4220839 -0.327994E-02  0.466E-01    0.17       1.0  T
   3    -73.4220569  0.269735E-04  0.247E-01    0.34       1.0  T
   4    -73.4205214  0.153551E-02  0.264E-01    0.12       1.0  T
   5    -73.4228804 -0.235900E-02  0.833E-02    0.24       1.0  T
   6    -73.4230297 -0.149272E-03  0.462E-02    0.22       1.0  T
   7    -73.4230663 -0.366059E-04  0.268E-02    0.21       1.0  T
   8    -73.4230778 -0.115277E-04  0.106E-02    0.20       1.4  T
   9    -73.4230783 -0.470322E-06  0.569E-03    0.21       2.7  T
  10    -73.4230788 -0.510854E-06  0.317E-03    0.20       4.8  T
  11    -73.4230791 -0.282762E-06  0.832E-04    0.20      18.3  T
  12    -73.4230791 -0.139337E-07  0.274E-04    0.20      55.6  T
     SCC iter.                  ...        0 min,  0.201 sec
     gradient                   ...        0 min,  0.061 sec
 * total energy  :   -72.6821796 Eh     change       -0.1979579E+00 Eh
   gradient norm :     0.2494046 Eh/α   predicted    -0.1878699E+00 (  -5.10%)
   displ. norm   :     0.8359671 α      lambda       -0.1811010E+00
   maximum displ.:     0.3513634 α      in ANC's #56, #36, #59, ...

........................................................................
.............................. CYCLE    6 ..............................
........................................................................

 iter      E             dE          RMSdq      gap      omega  full diag
   1    -73.5419553 -0.735420E+02  0.757E-01    0.93       0.0  T
   2    -73.5452349 -0.327959E-02  0.352E-01    1.19       1.0  T
   3    -73.5453254 -0.904472E-04  0.170E-01    1.13       1.0  T
   4    -73.5454538 -0.128411E-03  0.541E-02    1.13       1.0  T
   5    -73.5454800 -0.261868E-04  0.332E-02    1.13       1.0  T
   6    -73.5454833 -0.335898E-05  0.204E-02    1.13       1.0  T
   7    -73.5454869 -0.361560E-05  0.557E-03    1.14       2.7  T
   8    -73.5454871 -0.214466E-06  0.233E-03    1.14       6.6  T
   9    -73.5454872 -0.440546E-07  0.108E-03    1.14      14.2  T
  10    -73.5454872 -0.543869E-08  0.442E-04    1.14      34.5  T
  11    -73.5454872 -0.154773E-08  0.199E-04    1.14      76.5  T
     SCC iter.                  ...        0 min,  0.094 sec
     gradient                   ...        0 min,  0.046 sec
 * total energy  :   -72.8338685 Eh     change       -0.1516889E+00 Eh
   gradient norm :     0.2066387 Eh/α   predicted    -0.1538311E+00 (   1.41%)
   displ. norm   :     0.7744090 α      lambda       -0.1264110E+00
   maximum displ.:     0.3055705 α      in ANC's #56, #36, #57, ...

........................................................................
.............................. CYCLE    7 ..............................
........................................................................

 iter      E             dE          RMSdq      gap      omega  full diag
   1    -73.6389867 -0.736390E+02  0.493E-01    1.65       0.0  T
   2    -73.6404320 -0.144526E-02  0.255E-01    1.77       1.0  T
   3    -73.6404781 -0.461563E-04  0.118E-01    1.74       1.0  T
   4    -73.6405359 -0.577976E-04  0.333E-02    1.73       1.0  T
   5    -73.6405474 -0.114808E-04  0.197E-02    1.73       1.0  T
   6    -73.6405491 -0.172215E-05  0.117E-02    1.73       1.3  T
   7    -73.6405501 -0.976907E-06  0.346E-03    1.74       4.4  T
   8    -73.6405502 -0.944679E-07  0.148E-03    1.74      10.3  T
   9    -73.6405502 -0.154500E-07  0.751E-04    1.74      20.3  T
  10    -73.6405502 -0.287227E-08  0.325E-04    1.74      47.0  T
     SCC iter.                  ...        0 min,  0.154 sec
     gradient                   ...        0 min,  0.044 sec
 * total energy  :   -72.9407969 Eh     change       -0.1069284E+00 Eh
   gradient norm :     0.1757679 Eh/α   predicted    -0.1011105E+00 (  -5.44%)
   displ. norm   :     0.7613696 α      lambda       -0.9878236E-01
   maximum displ.:     0.3356512 α      in ANC's #36, #56, #57, ...

........................................................................
.............................. CYCLE    8 ..............................
........................................................................

 iter      E             dE          RMSdq      gap      omega  full diag
   1    -73.7285854 -0.737286E+02  0.402E-01    2.11       0.0  T
   2    -73.7293059 -0.720469E-03  0.225E-01    2.11       1.0  T
   3    -73.7293153 -0.941258E-05  0.895E-02    2.10       1.0  T
   4    -73.7293576 -0.422623E-04  0.217E-02    2.10       1.0  T
   5    -73.7293634 -0.582489E-05  0.116E-02    2.10       1.3  T
   6    -73.7293640 -0.663970E-06  0.682E-03    2.10       2.2  T
   7    -73.7293644 -0.307536E-06  0.186E-03    2.10       8.2  T
   8    -73.7293644 -0.334713E-07  0.807E-04    2.10      18.9  T
   9    -73.7293644 -0.623395E-08  0.408E-04    2.10      37.4  T
     SCC iter.                  ...        0 min,  0.105 sec
     gradient                   ...        0 min,  0.055 sec
 * total energy  :   -73.0239380 Eh     change       -0.8314108E-01 Eh
   gradient norm :     0.1410856 Eh/α   predicted    -0.7802246E-01 (  -6.16%)
   displ. norm   :     0.7504586 α      lambda       -0.7447749E-01
   maximum displ.:     0.3690749 α      in ANC's #36, #56, #57, ...

........................................................................
.............................. CYCLE    9 ..............................
........................................................................

 iter      E             dE          RMSdq      gap      omega  full diag
   1    -73.8070080 -0.738070E+02  0.379E-01    2.34       0.0  T
   2    -73.8073543 -0.346262E-03  0.218E-01    2.31       1.0  T
   3    -73.8073511  0.317851E-05  0.618E-02    2.30       1.0  T
   4    -73.8073832 -0.321162E-04  0.143E-02    2.30       1.1  T
   5    -73.8073852 -0.203517E-05  0.798E-03    2.30       1.9  T
   6    -73.8073854 -0.135616E-06  0.385E-03    2.31       4.0  T
   7    -73.8073855 -0.108380E-06  0.123E-03    2.31      12.4  T
   8    -73.8073855 -0.153810E-07  0.656E-04    2.31      23.2  T
   9    -73.8073855 -0.447663E-08  0.367E-04    2.31      41.6  T
     SCC iter.                  ...        0 min,  0.144 sec
     gradient                   ...        0 min,  0.048 sec
 * total energy  :   -73.0849609 Eh     change       -0.6102287E-01 Eh
   gradient norm :     0.1099503 Eh/α   predicted    -0.5821115E-01 (  -4.61%)
   displ. norm   :     0.7375646 α      lambda       -0.5089359E-01
   maximum displ.:     0.3908092 α      in ANC's #36, #25, #56, ...

........................................................................
.............................. CYCLE   10 ..............................
........................................................................

 iter      E             dE          RMSdq      gap      omega  full diag
   1    -73.8622792 -0.738623E+02  0.338E-01    2.45       0.0  T
   2    -73.8624214 -0.142223E-03  0.196E-01    2.43       1.0  T
   3    -73.8624185  0.289217E-05  0.391E-02    2.42       1.0  T
   4    -73.8624368 -0.182821E-04  0.123E-02    2.43       1.2  T
   5    -73.8624378 -0.101797E-05  0.734E-03    2.43       2.1  T
   6    -73.8624380 -0.150603E-06  0.348E-03    2.43       4.4  T
   7    -73.8624380 -0.666277E-07  0.112E-03    2.43      13.6  T
   8    -73.8624380 -0.143547E-07  0.537E-04    2.43      28.4  T
   9    -73.8624380 -0.229002E-08  0.298E-04    2.43      51.2  T
     SCC iter.                  ...        0 min,  0.092 sec
     gradient                   ...        0 min,  0.043 sec
 * total energy  :   -73.1271642 Eh     change       -0.4220337E-01 Eh
   gradient norm :     0.0992182 Eh/α   predicted    -0.3928993E-01 (  -6.90%)
   displ. norm   :     0.7354745 α      lambda       -0.3921760E-01
   maximum displ.:     0.4017908 α      in ANC's #36, #25, #27, ...

........................................................................
.............................. CYCLE   11 ..............................
........................................................................

 iter      E             dE          RMSdq      gap      omega  full diag
   1    -73.8988902 -0.738989E+02  0.295E-01    2.55       0.0  T
   2    -73.8989678 -0.775085E-04  0.171E-01    2.55       1.0  T
   3    -73.8989644  0.339854E-05  0.300E-02    2.55       1.0  T
   4    -73.8989771 -0.126960E-04  0.113E-02    2.55       1.3  T
   5    -73.8989780 -0.902612E-06  0.676E-03    2.55       2.3  T
   6    -73.8989780 -0.868702E-07  0.285E-03    2.55       5.3  T
   7    -73.8989781 -0.631948E-07  0.873E-04    2.55      17.5  T
   8    -73.8989781 -0.965147E-08  0.410E-04    2.55      37.2  T
     SCC iter.                  ...        0 min,  0.175 sec
     gradient                   ...        0 min,  0.052 sec
 * total energy  :   -73.1604779 Eh     change       -0.3331363E-01 Eh
   gradient norm :     0.0871624 Eh/α   predicted    -0.3021566E-01 (  -9.30%)
   displ. norm   :     0.7414228 α      lambda       -0.3243413E-01
   maximum displ.:     0.4147820 α      in ANC's #36, #25, #40, ...

........................................................................
.............................. CYCLE   12 ..............................
........................................................................

 iter      E             dE          RMSdq      gap      omega  full diag
   1    -73.9230886 -0.739231E+02  0.263E-01    2.61       0.0  T
   2    -73.9231222 -0.335936E-04  0.153E-01    2.65       1.0  T
   3    -73.9231192  0.296808E-05  0.237E-02    2.67       1.0  T
   4    -73.9231296 -0.104175E-04  0.102E-02    2.67       1.5  T
   5    -73.9231301 -0.470088E-06  0.526E-03    2.66       2.9  T
   6    -73.9231301 -0.392566E-07  0.215E-03    2.66       7.1  T
   7    -73.9231302 -0.662065E-07  0.641E-04    2.66      23.8  T
   8    -73.9231302 -0.330267E-08  0.265E-04    2.66      57.5  T
     SCC iter.                  ...        0 min,  0.071 sec
     gradient                   ...        0 min,  0.049 sec
 * total energy  :   -73.1879526 Eh     change       -0.2747474E-01 Eh
   gradient norm :     0.0716917 Eh/α   predicted    -0.2513172E-01 (  -8.53%)
   displ. norm   :     0.7382829 α      lambda       -0.2598146E-01
   maximum displ.:     0.3986871 α      in ANC's #36, #25, #40, ...

........................................................................
.............................. CYCLE   13 ..............................
........................................................................

 iter      E             dE          RMSdq      gap      omega  full diag
   1    -73.9395323 -0.739395E+02  0.240E-01    2.70       0.0  T
   2    -73.9395896 -0.572880E-04  0.138E-01    2.75       1.0  T
   3    -73.9395900 -0.419378E-06  0.242E-02    2.78       1.0  T
   4    -73.9395971 -0.707502E-05  0.881E-03    2.78       1.7  T
   5    -73.9395980 -0.938497E-06  0.433E-03    2.77       3.5  T
   6    -73.9395981 -0.346355E-07  0.189E-03    2.77       8.1  T
   7    -73.9395981 -0.399853E-07  0.687E-04    2.77      22.2  T
   8    -73.9395981 -0.488704E-08  0.284E-04    2.77      53.6  T
     SCC iter.                  ...        0 min,  0.136 sec
     gradient                   ...        0 min,  0.048 sec
 * total energy  :   -73.2096547 Eh     change       -0.2170205E-01 Eh
   gradient norm :     0.0610250 Eh/α   predicted    -0.2007148E-01 (  -7.51%)
   displ. norm   :     0.7259818 α      lambda       -0.2010993E-01
   maximum displ.:     0.3488317 α      in ANC's #36, #25, #40, ...

........................................................................
.............................. CYCLE   14 ..............................
........................................................................

 iter      E             dE          RMSdq      gap      omega  full diag
   1    -73.9472121 -0.739472E+02  0.213E-01    2.77       0.0  T
   2    -73.9474128 -0.200705E-03  0.117E-01    2.82       1.0  T
   3    -73.9474146 -0.173646E-05  0.418E-02    2.83       1.0  T
   4    -73.9474199 -0.531881E-05  0.117E-02    2.83       1.3  T
   5    -73.9474233 -0.340358E-05  0.429E-03    2.83       3.6  T
   6    -73.9474234 -0.924232E-07  0.250E-03    2.83       6.1  T
   7    -73.9474234 -0.365508E-07  0.828E-04    2.83      18.4  T
   8    -73.9474234 -0.382927E-08  0.343E-04    2.83      44.5  T
     SCC iter.                  ...        0 min,  0.071 sec
     gradient                   ...        0 min,  0.050 sec
 * total energy  :   -73.2257893 Eh     change       -0.1613460E-01 Eh
   gradient norm :     0.0552648 Eh/α   predicted    -0.1535445E-01 (  -4.84%)
   displ. norm   :     0.7153923 α      lambda       -0.1533821E-01
   maximum displ.:     0.3858982 α      in ANC's #25, #36, #9, ...

........................................................................
.............................. CYCLE   15 ..............................
........................................................................

 iter      E             dE          RMSdq      gap      omega  full diag
   1    -73.9543953 -0.739544E+02  0.198E-01    2.83       0.0  T
   2    -73.9545300 -0.134722E-03  0.113E-01    2.86       1.0  T
   3    -73.9545341 -0.402454E-05  0.327E-02    2.88       1.0  T
   4    -73.9545409 -0.678550E-05  0.107E-02    2.88       1.4  T
   5    -73.9545423 -0.146629E-05  0.520E-03    2.87       2.9  T
   6    -73.9545425 -0.163083E-06  0.295E-03    2.87       5.2  T
   7    -73.9545425 -0.345709E-07  0.103E-03    2.87      14.8  T
   8    -73.9545425 -0.733588E-08  0.409E-04    2.87      37.2  T
   9    -73.9545425 -0.194220E-08  0.191E-04    2.87      79.6  T
     SCC iter.                  ...        0 min,  0.156 sec
     gradient                   ...        0 min,  0.048 sec
 * total energy  :   -73.2371401 Eh     change       -0.1135081E-01 Eh
   gradient norm :     0.0535478 Eh/α   predicted    -0.1159406E-01 (   2.14%)
   displ. norm   :     0.6586064 α      lambda       -0.1203920E-01
   maximum displ.:     0.3146032 α      in ANC's #25, #9, #36, ...

........................................................................
.............................. CYCLE   16 ..............................
........................................................................

 iter      E             dE          RMSdq      gap      omega  full diag
   1    -73.9584937 -0.739585E+02  0.182E-01    2.88       0.0  T
   2    -73.9586688 -0.175106E-03  0.102E-01    2.88       1.0  T
   3    -73.9586713 -0.254675E-05  0.409E-02    2.87       1.0  T
   4    -73.9586803 -0.891927E-05  0.129E-02    2.87       1.2  T
   5    -73.9586817 -0.140900E-05  0.729E-03    2.87       2.1  T
   6    -73.9586818 -0.129841E-06  0.430E-03    2.87       3.5  T
   7    -73.9586819 -0.109735E-06  0.847E-04    2.87      18.0  T
   8    -73.9586819 -0.515277E-08  0.375E-04    2.87      40.7  T
     SCC iter.                  ...        0 min,  0.170 sec
     gradient                   ...        0 min,  0.088 sec
 * total energy  :   -73.2462735 Eh     change       -0.9133434E-02 Eh
   gradient norm :     0.0495503 Eh/α   predicted    -0.8630680E-02 (  -5.50%)
   displ. norm   :     0.6669988 α      lambda       -0.9798446E-02
   maximum displ.:     0.3315303 α      in ANC's #25, #9, #40, ...

........................................................................
.............................. CYCLE   17 ..............................
........................................................................

 iter      E             dE          RMSdq      gap      omega  full diag
   1    -73.9592838 -0.739593E+02  0.166E-01    2.82       0.0  T
   2    -73.9594081 -0.124329E-03  0.919E-02    2.79       1.0  T
   3    -73.9594108 -0.271415E-05  0.353E-02    2.77       1.0  T
   4    -73.9594186 -0.779846E-05  0.122E-02    2.77       1.3  T
   5    -73.9594194 -0.846904E-06  0.703E-03    2.77       2.2  T
   6    -73.9594195 -0.798009E-07  0.368E-03    2.77       4.1  T
   7    -73.9594196 -0.102335E-06  0.990E-04    2.77      15.4  T
   8    -73.9594196 -0.107507E-07  0.401E-04    2.77      38.0  T
     SCC iter.                  ...        0 min,  0.148 sec
     gradient                   ...        0 min,  0.048 sec
 * total energy  :   -73.2539131 Eh     change       -0.7639588E-02 Eh
   gradient norm :     0.0645382 Eh/α   predicted    -0.7078838E-02 (  -7.34%)
   displ. norm   :     0.6410759 α      lambda       -0.1250716E-01
   maximum displ.:     0.3316011 α      in ANC's #25, #9, #7, ...

........................................................................
.............................. CYCLE   18 ..............................
........................................................................

 iter      E             dE          RMSdq      gap      omega  full diag
   1    -73.9736173 -0.739736E+02  0.227E-01    2.75       0.0  T
   2    -73.9737781 -0.160771E-03  0.130E-01    2.68       1.0  T
   3    -73.9737822 -0.412334E-05  0.381E-02    2.63       1.0  T
   4    -73.9737920 -0.980379E-05  0.172E-02    2.63       1.0  T
   5    -73.9737944 -0.241319E-05  0.958E-03    2.64       1.6  T
   6    -73.9737948 -0.394197E-06  0.405E-03    2.65       3.8  T
   7    -73.9737949 -0.960258E-07  0.992E-04    2.65      15.4  T
   8    -73.9737949 -0.601851E-08  0.461E-04    2.64      33.1  T
     SCC iter.                  ...        0 min,  0.100 sec
     gradient                   ...        0 min,  0.086 sec
 * total energy  :   -73.2627238 Eh     change       -0.8810677E-02 Eh
   gradient norm :     0.0664032 Eh/α   predicted    -0.8823676E-02 (   0.15%)
   displ. norm   :     0.5768225 α      lambda       -0.9939858E-02
   maximum displ.:     0.2267859 α      in ANC's #25, #9, #37, ...

........................................................................
.............................. CYCLE   19 ..............................
........................................................................

 iter      E             dE          RMSdq      gap      omega  full diag
   1    -73.9752219 -0.739752E+02  0.160E-01    2.59       0.0  T
   2    -73.9753382 -0.116273E-03  0.897E-02    2.51       1.0  T
   3    -73.9753450 -0.683097E-05  0.351E-02    2.46       1.0  T
   4    -73.9753525 -0.746074E-05  0.142E-02    2.46       1.1  T
   5    -73.9753533 -0.773988E-06  0.715E-03    2.47       2.1  T
   6    -73.9753537 -0.424899E-06  0.351E-03    2.47       4.3  T
   7    -73.9753538 -0.577310E-07  0.119E-03    2.47      12.9  T
   8    -73.9753538 -0.169159E-07  0.439E-04    2.47      34.7  T
   9    -73.9753538 -0.138927E-08  0.245E-04    2.47      62.2  T
     SCC iter.                  ...        0 min,  0.171 sec
     gradient                   ...        0 min,  0.062 sec
 * total energy  :   -73.2710391 Eh     change       -0.8315360E-02 Eh
   gradient norm :     0.0667150 Eh/α   predicted    -0.6623555E-02 ( -20.35%)
   displ. norm   :     0.5883617 α      lambda       -0.1223197E-01
   maximum displ.:     0.2313335 α      in ANC's #27, #41, #7, ...

........................................................................
.............................. CYCLE   20 ..............................
........................................................................

 iter      E             dE          RMSdq      gap      omega  full diag
   1    -73.9836546 -0.739837E+02  0.187E-01    2.41       0.0  T
   2    -73.9837891 -0.134475E-03  0.108E-01    2.32       1.0  T
   3    -73.9837999 -0.108217E-04  0.347E-02    2.26       1.0  T
   4    -73.9838029 -0.294778E-05  0.148E-02    2.26       1.0  T
   5    -73.9838051 -0.223881E-05  0.706E-03    2.27       2.2  T
   6    -73.9838055 -0.334161E-06  0.336E-03    2.27       4.5  T
   7    -73.9838055 -0.581408E-07  0.120E-03    2.27      12.7  T
   8    -73.9838055 -0.116059E-07  0.531E-04    2.27      28.7  T
   9    -73.9838055 -0.396697E-08  0.282E-04    2.27      54.2  T
     SCC iter.                  ...        0 min,  0.130 sec
     gradient                   ...        0 min,  0.098 sec
 * total energy  :   -73.2798981 Eh     change       -0.8859012E-02 Eh
   gradient norm :     0.0435270 Eh/α   predicted    -0.8233166E-02 (  -7.06%)
   displ. norm   :     0.5220329 α      lambda       -0.6368236E-02
   maximum displ.:     0.1803949 α      in ANC's #27, #41, #9, ...
 * RMSD in coord.:     1.4360631 α      energy gain  -0.4764681E+01 Eh

generating ANC from exact Hessian ...
Using Lindh-Hessian (1995)
 Shifting diagonal of input Hessian by    1.0284539489731678E-002
 Lowest  eigenvalues of input Hessian
    0.010000    0.010038    0.010129    0.000000    0.000000    0.000000
    0.000000    0.000000    0.000000    0.010397    0.010467    0.010560
    0.010641    0.010736    0.010751    0.011155    0.011210    0.011328
 Highest eigenvalues
    1.881679    1.930518    1.961445    2.073011    2.231845    2.395774


........................................................................
.............................. CYCLE   21 ..............................
........................................................................

 iter      E             dE          RMSdq      gap      omega  full diag
   1    -73.9762040 -0.739762E+02  0.131E-01    2.23       0.0  T
   2    -73.9762565 -0.524726E-04  0.753E-02    2.20       1.0  T
   3    -73.9762609 -0.437942E-05  0.224E-02    2.17       1.0  T
   4    -73.9762625 -0.164610E-05  0.869E-03    2.17       1.8  T
   5    -73.9762630 -0.426124E-06  0.425E-03    2.18       3.6  T
   6    -73.9762630 -0.620565E-07  0.173E-03    2.18       8.8  T
   7    -73.9762630 -0.257597E-07  0.679E-04    2.18      22.5  T
   8    -73.9762631 -0.452545E-08  0.289E-04    2.18      52.7  T
     SCC iter.                  ...        0 min,  0.112 sec
     gradient                   ...        0 min,  0.053 sec
 * total energy  :   -73.2839051 Eh     change       -0.4006994E-02 Eh
   gradient norm :     0.0423359 Eh/α   predicted     0.0000000E+00 (-100.00%)
   displ. norm   :     0.3817964 α      lambda       -0.7502302E-02
   maximum displ.:     0.2196486 α      in ANC's #33, #49, #22, ...

........................................................................
.............................. CYCLE   22 ..............................
........................................................................

 iter      E             dE          RMSdq      gap      omega  full diag
   1    -73.9942745 -0.739943E+02  0.114E-01    2.16       0.0  T
   2    -73.9943205 -0.460075E-04  0.663E-02    2.15       1.0  T
   3    -73.9943204  0.811038E-07  0.228E-02    2.14       1.0  T
   4    -73.9943243 -0.386692E-05  0.582E-03    2.14       2.6  T
   5    -73.9943247 -0.427049E-06  0.307E-03    2.14       5.0  T
   6    -73.9943247 -0.432930E-07  0.177E-03    2.14       8.6  T
   7    -73.9943248 -0.155545E-07  0.584E-04    2.14      26.1  T
   8    -73.9943248 -0.151046E-08  0.246E-04    2.14      62.0  T
     SCC iter.                  ...        0 min,  0.116 sec
     gradient                   ...        0 min,  0.048 sec
 * total energy  :   -73.2903642 Eh     change       -0.6459056E-02 Eh
   gradient norm :     0.0299305 Eh/α   predicted    -0.4298183E-02 ( -33.45%)
   displ. norm   :     0.7013964 α      lambda       -0.1181983E-01
   maximum displ.:     0.4102382 α      in ANC's #33, #49, #45, ...

........................................................................
.............................. CYCLE   23 ..............................
........................................................................

 iter      E             dE          RMSdq      gap      omega  full diag
   1    -74.0168451 -0.740168E+02  0.186E-01    2.11       0.0  T
   2    -74.0169807 -0.135635E-03  0.106E-01    2.18       1.0  T
   3    -74.0169817 -0.955998E-06  0.362E-02    2.20       1.0  T
   4    -74.0169903 -0.866220E-05  0.122E-02    2.20       1.2  T
   5    -74.0169937 -0.332765E-05  0.595E-03    2.19       2.6  T
   6    -74.0169938 -0.131851E-06  0.324E-03    2.19       4.7  T
   7    -74.0169938 -0.273411E-07  0.970E-04    2.19      15.7  T
   8    -74.0169938 -0.711746E-08  0.382E-04    2.19      39.9  T
     SCC iter.                  ...        0 min,  0.068 sec
     gradient                   ...        0 min,  0.048 sec
 * total energy  :   -73.3002227 Eh     change       -0.9858555E-02 Eh
   gradient norm :     0.0390890 Eh/α   predicted    -0.8817356E-02 ( -10.56%)
   displ. norm   :     0.7165603 α      lambda       -0.1145586E-01
   maximum displ.:     0.3973460 α      in ANC's #33, #45, #49, ...

........................................................................
.............................. CYCLE   24 ..............................
........................................................................

 iter      E             dE          RMSdq      gap      omega  full diag
   1    -74.0309443 -0.740309E+02  0.212E-01    2.21       0.0  T
   2    -74.0313010 -0.356691E-03  0.120E-01    2.39       1.0  T
   3    -74.0313252 -0.241855E-04  0.542E-02    2.46       1.0  T
   4    -74.0313421 -0.169211E-04  0.235E-02    2.47       1.0  T
   5    -74.0313504 -0.830126E-05  0.957E-03    2.45       1.6  T
   6    -74.0313507 -0.295721E-06  0.516E-03    2.45       3.0  T
   7    -74.0313508 -0.114160E-06  0.144E-03    2.45      10.6  T
   8    -74.0313508 -0.213211E-07  0.489E-04    2.45      31.2  T
   9    -74.0313508 -0.170409E-08  0.230E-04    2.45      66.3  T
     SCC iter.                  ...        0 min,  0.194 sec
     gradient                   ...        0 min,  0.044 sec
 * total energy  :   -73.3103246 Eh     change       -0.1010186E-01 Eh
   gradient norm :     0.0738971 Eh/α   predicted    -0.8669015E-02 ( -14.18%)
   displ. norm   :     0.7079595 α      lambda       -0.1651577E-01
   maximum displ.:     0.3005970 α      in ANC's #33, #45, #58, ...

........................................................................
.............................. CYCLE   25 ..............................
........................................................................

 iter      E             dE          RMSdq      gap      omega  full diag
   1    -74.0445760 -0.740446E+02  0.307E-01    2.60       0.0  T
   2    -74.0458138 -0.123780E-02  0.182E-01    2.91       1.0  T
   3    -74.0459433 -0.129445E-03  0.101E-01    2.92       1.0  T
   4    -74.0459690 -0.257452E-04  0.515E-02    2.94       1.0  T
   5    -74.0459977 -0.287057E-04  0.184E-02    2.94       1.0  T
   6    -74.0459993 -0.159165E-05  0.107E-02    2.93       1.4  T
   7    -74.0459999 -0.543603E-06  0.296E-03    2.93       5.2  T
   8    -74.0460000 -0.767226E-07  0.123E-03    2.93      12.4  T
   9    -74.0460000 -0.214431E-07  0.491E-04    2.93      31.1  T
  10    -74.0460000 -0.962231E-09  0.207E-04    2.93      73.7  T
     SCC iter.                  ...        0 min,  0.146 sec
     gradient                   ...        0 min,  0.047 sec
 * total energy  :   -73.3246451 Eh     change       -0.1432054E-01 Eh
   gradient norm :     0.1191990 Eh/α   predicted    -0.1239680E-01 ( -13.43%)
   displ. norm   :     0.6369083 α      lambda       -0.2974165E-01
   maximum displ.:     0.2840746 α      in ANC's #70, #86, #75, ...

........................................................................
.............................. CYCLE   26 ..............................
........................................................................

 iter      E             dE          RMSdq      gap      omega  full diag
   1    -74.0669152 -0.740669E+02  0.348E-01    2.96       0.0  T
   2    -74.0679117 -0.996427E-03  0.225E-01    3.02       1.0  T
   3    -74.0680476 -0.135971E-03  0.130E-01    3.02       1.0  T
   4    -74.0680957 -0.480899E-04  0.667E-02    3.04       1.0  T
   5    -74.0681305 -0.347816E-04  0.207E-02    3.03       1.0  T
   6    -74.0681348 -0.425129E-05  0.115E-02    3.03       1.3  T
   7    -74.0681351 -0.309217E-06  0.381E-03    3.03       4.0  T
   8    -74.0681353 -0.196967E-06  0.138E-03    3.03      11.0  T
   9    -74.0681353 -0.154800E-07  0.607E-04    3.03      25.1  T
  10    -74.0681353 -0.141860E-08  0.257E-04    3.03      59.3  T
     SCC iter.                  ...        0 min,  0.081 sec
     gradient                   ...        0 min,  0.046 sec
 * total energy  :   -73.3296173 Eh     change       -0.4972196E-02 Eh
   gradient norm :     0.1702620 Eh/α   predicted    -0.2090326E-01 ( 320.40%)
   displ. norm   :     0.3833905 α      lambda       -0.4794548E-01
   maximum displ.:     0.1545309 α      in ANC's #78, #45, #75, ...

........................................................................
.............................. CYCLE   27 ..............................
........................................................................

 iter      E             dE          RMSdq      gap      omega  full diag
   1    -74.0635756 -0.740636E+02  0.280E-01    3.05       0.0  T
   2    -74.0637926 -0.216956E-03  0.174E-01    3.03       1.0  T
   3    -74.0638043 -0.116874E-04  0.562E-02    3.02       1.0  T
   4    -74.0638434 -0.390914E-04  0.223E-02    3.01       1.0  T
   5    -74.0638477 -0.434086E-05  0.111E-02    3.01       1.4  T
   6    -74.0638485 -0.744646E-06  0.536E-03    3.01       2.8  T
   7    -74.0638486 -0.190452E-06  0.206E-03    3.01       7.4  T
   8    -74.0638487 -0.360889E-07  0.963E-04    3.01      15.8  T
   9    -74.0638487 -0.726413E-08  0.443E-04    3.01      34.5  T
     SCC iter.                  ...        0 min,  0.127 sec
     gradient                   ...        0 min,  0.088 sec
 * total energy  :   -73.3497916 Eh     change       -0.2017425E-01 Eh
   gradient norm :     0.0768990 Eh/α   predicted    -0.2749645E-01 (  36.29%)
   displ. norm   :     0.3576373 α      lambda       -0.1003246E-01
   maximum displ.:     0.1585874 α      in ANC's #45, #51, #49, ...

........................................................................
.............................. CYCLE   28 ..............................
........................................................................

 iter      E             dE          RMSdq      gap      omega  full diag
   1    -74.0706276 -0.740706E+02  0.203E-01    3.03       0.0  T
   2    -74.0706620 -0.343785E-04  0.121E-01    3.04       1.0  T
   3    -74.0706651 -0.305828E-05  0.190E-02    3.03       1.0  T
   4    -74.0706692 -0.416535E-05  0.855E-03    3.04       1.8  T
   5    -74.0706699 -0.674634E-06  0.423E-03    3.03       3.6  T
   6    -74.0706701 -0.131629E-06  0.199E-03    3.03       7.7  T
   7    -74.0706701 -0.292098E-07  0.809E-04    3.03      18.9  T
   8    -74.0706701 -0.420019E-08  0.350E-04    3.03      43.6  T
     SCC iter.                  ...        0 min,  0.105 sec
     gradient                   ...        0 min,  0.083 sec
 * total energy  :   -73.3576307 Eh     change       -0.7839094E-02 Eh
   gradient norm :     0.0575302 Eh/α   predicted    -0.5657850E-02 ( -27.83%)
   displ. norm   :     0.5491743 α      lambda       -0.1244617E-01
   maximum displ.:     0.2095851 α      in ANC's #51, #9, #70, ...

........................................................................
.............................. CYCLE   29 ..............................
........................................................................

 iter      E             dE          RMSdq      gap      omega  full diag
   1    -74.0801002 -0.740801E+02  0.274E-01    3.05       0.0  T
   2    -74.0801519 -0.517223E-04  0.163E-01    3.07       1.0  T
   3    -74.0801576 -0.570423E-05  0.288E-02    3.07       1.0  T
   4    -74.0801658 -0.816768E-05  0.148E-02    3.08       1.0  T
   5    -74.0801679 -0.214086E-05  0.482E-03    3.07       3.2  T
   6    -74.0801681 -0.161020E-06  0.241E-03    3.07       6.3  T
   7    -74.0801681 -0.426303E-07  0.924E-04    3.07      16.5  T
   8    -74.0801681 -0.345572E-08  0.442E-04    3.07      34.5  T
     SCC iter.                  ...        0 min,  0.086 sec
     gradient                   ...        0 min,  0.087 sec
 * total energy  :   -73.3648700 Eh     change       -0.7239326E-02 Eh
   gradient norm :     0.0346118 Eh/α   predicted    -0.8099955E-02 (  11.89%)
   displ. norm   :     0.3543820 α      lambda       -0.4224938E-02
   maximum displ.:     0.1551414 α      in ANC's #9, #49, #4, ...

........................................................................
.............................. CYCLE   30 ..............................
........................................................................

 iter      E             dE          RMSdq      gap      omega  full diag
   1    -74.0902694 -0.740903E+02  0.107E-01    3.10       0.0  T
   2    -74.0902879 -0.185405E-04  0.639E-02    3.09       1.0  T
   3    -74.0902861  0.181731E-05  0.190E-02    3.10       1.0  T
   4    -74.0902918 -0.575565E-05  0.747E-03    3.09       2.0  T
   5    -74.0902921 -0.272932E-06  0.478E-03    3.09       3.2  T
   6    -74.0902921 -0.234926E-07  0.210E-03    3.09       7.3  T
   7    -74.0902922 -0.445418E-07  0.424E-04    3.09      35.9  T
   8    -74.0902922 -0.139580E-08  0.258E-04    3.09      59.1  T
     SCC iter.                  ...        0 min,  0.096 sec
     gradient                   ...        0 min,  0.087 sec
 * total energy  :   -73.3679802 Eh     change       -0.3110183E-02 Eh
   gradient norm :     0.0258698 Eh/α   predicted    -0.2377765E-02 ( -23.55%)
   displ. norm   :     0.4899211 α      lambda       -0.3666885E-02
   maximum displ.:     0.2292180 α      in ANC's #9, #4, #10, ...

........................................................................
.............................. CYCLE   31 ..............................
........................................................................

 iter      E             dE          RMSdq      gap      omega  full diag
   1    -74.0928772 -0.740929E+02  0.995E-02    3.11       0.0  T
   2    -74.0929002 -0.229976E-04  0.591E-02    3.10       1.0  T
   3    -74.0928984  0.183055E-05  0.211E-02    3.11       1.0  T
   4    -74.0929037 -0.534531E-05  0.939E-03    3.10       1.6  T
   5    -74.0929040 -0.295992E-06  0.586E-03    3.11       2.6  T
   6    -74.0929040 -0.244060E-07  0.188E-03    3.10       8.1  T
   7    -74.0929041 -0.543307E-07  0.408E-04    3.10      37.4  T
   8    -74.0929041 -0.200188E-08  0.214E-04    3.10      71.3  T
     SCC iter.                  ...        0 min,  0.152 sec
     gradient                   ...        0 min,  0.050 sec
 * total energy  :   -73.3705851 Eh     change       -0.2604933E-02 Eh
   gradient norm :     0.0224061 Eh/α   predicted    -0.2273511E-02 ( -12.72%)
   displ. norm   :     0.5599809 α      lambda       -0.2992554E-02
   maximum displ.:     0.2656202 α      in ANC's #9, #4, #10, ...

........................................................................
.............................. CYCLE   32 ..............................
........................................................................

 iter      E             dE          RMSdq      gap      omega  full diag
   1    -74.0972969 -0.740973E+02  0.764E-02    3.11       0.0  T
   2    -74.0973204 -0.234877E-04  0.464E-02    3.11       1.0  T
   3    -74.0973215 -0.110710E-05  0.236E-02    3.11       1.0  T
   4    -74.0973237 -0.224430E-05  0.145E-02    3.11       1.1  T
   5    -74.0973241 -0.371919E-06  0.623E-03    3.11       2.4  T
   6    -74.0973243 -0.221429E-06  0.139E-03    3.11      10.9  T
   7    -74.0973244 -0.326288E-07  0.511E-04    3.11      29.9  T
   8    -74.0973244 -0.300524E-08  0.265E-04    3.11      57.5  T
     SCC iter.                  ...        0 min,  0.071 sec
     gradient                   ...        0 min,  0.049 sec
 * total energy  :   -73.3725315 Eh     change       -0.1946347E-02 Eh
   gradient norm :     0.0198214 Eh/α   predicted    -0.1965479E-02 (   0.98%)
   displ. norm   :     0.4714676 α      lambda       -0.1651754E-02
   maximum displ.:     0.2716132 α      in ANC's #4, #9, #10, ...

........................................................................
.............................. CYCLE   33 ..............................
........................................................................

 iter      E             dE          RMSdq      gap      omega  full diag
   1    -74.0946612 -0.740947E+02  0.675E-02    3.10       0.0  T
   2    -74.0946688 -0.754913E-05  0.392E-02    3.10       1.0  T
   3    -74.0946681  0.718458E-06  0.121E-02    3.10       1.3  T
   4    -74.0946704 -0.229973E-05  0.700E-03    3.10       2.2  T
   5    -74.0946705 -0.108657E-06  0.406E-03    3.10       3.8  T
   6    -74.0946705  0.335559E-08  0.134E-03    3.10      11.4  T
   7    -74.0946705 -0.320228E-07  0.345E-04    3.10      44.2  T
   8    -74.0946705 -0.176895E-08  0.181E-04    3.10      84.5  T
     SCC iter.                  ...        0 min,  0.068 sec
     gradient                   ...        0 min,  0.084 sec
 * total energy  :   -73.3737114 Eh     change       -0.1179918E-02 Eh
   gradient norm :     0.0109784 Eh/α   predicted    -0.1009458E-02 ( -14.45%)
   displ. norm   :     0.4333253 α      lambda       -0.1031002E-02
   maximum displ.:     0.2719026 α      in ANC's #4, #9, #10, ...

........................................................................
.............................. CYCLE   34 ..............................
........................................................................

 iter      E             dE          RMSdq      gap      omega  full diag
   1    -74.0952015 -0.740952E+02  0.793E-02    3.09       0.0  T
   2    -74.0952066 -0.502859E-05  0.456E-02    3.10       1.0  T
   3    -74.0952061  0.455266E-06  0.907E-03    3.10       1.7  T
   4    -74.0952072 -0.113829E-05  0.494E-03    3.10       3.1  T
   5    -74.0952074 -0.131929E-06  0.278E-03    3.10       5.5  T
   6    -74.0952074 -0.688813E-08  0.100E-03    3.10      15.2  T
   7    -74.0952074 -0.119838E-07  0.247E-04    3.10      61.6  T
   8    -74.0952074 -0.764729E-09  0.110E-04    3.10     138.4  T
     SCC iter.                  ...        0 min,  0.177 sec
     gradient                   ...        0 min,  0.054 sec
 * total energy  :   -73.3744781 Eh     change       -0.7667148E-03 Eh
   gradient norm :     0.0086435 Eh/α   predicted    -0.6123028E-03 ( -20.14%)
   displ. norm   :     0.3804654 α      lambda       -0.6301106E-03
   maximum displ.:     0.2500425 α      in ANC's #4, #9, #6, ...

........................................................................
.............................. CYCLE   35 ..............................
........................................................................

 iter      E             dE          RMSdq      gap      omega  full diag
   1    -74.0948966 -0.740949E+02  0.621E-02    3.09       0.0  T
   2    -74.0949003 -0.369432E-05  0.356E-02    3.10       1.0  T
   3    -74.0949001  0.196142E-06  0.566E-03    3.10       2.7  T
   4    -74.0949006 -0.467889E-06  0.269E-03    3.10       5.7  T
   5    -74.0949007 -0.939149E-07  0.144E-03    3.10      10.6  T
   6    -74.0949007 -0.421755E-08  0.693E-04    3.10      22.0  T
   7    -74.0949007 -0.207352E-08  0.209E-04    3.10      72.9  T
     SCC iter.                  ...        0 min,  0.158 sec
     gradient                   ...        0 min,  0.088 sec
 * total energy  :   -73.3749859 Eh     change       -0.5078376E-03 Eh
   gradient norm :     0.0097237 Eh/α   predicted    -0.3606644E-03 ( -28.98%)
   displ. norm   :     0.3738938 α      lambda       -0.5925868E-03
   maximum displ.:     0.2451939 α      in ANC's #4, #9, #6, ...

........................................................................
.............................. CYCLE   36 ..............................
........................................................................

 iter      E             dE          RMSdq      gap      omega  full diag
   1    -74.0951970 -0.740952E+02  0.590E-02    3.10       0.0  T
   2    -74.0952006 -0.357168E-05  0.342E-02    3.10       1.0  T
   3    -74.0952005  0.983914E-08  0.538E-03    3.10       2.8  T
   4    -74.0952009 -0.389739E-06  0.312E-03    3.10       4.9  T
   5    -74.0952010 -0.593520E-07  0.195E-03    3.10       7.8  T
   6    -74.0952010 -0.664299E-08  0.748E-04    3.10      20.4  T
   7    -74.0952010 -0.414171E-08  0.215E-04    3.10      71.0  T
     SCC iter.                  ...        0 min,  0.109 sec
     gradient                   ...        0 min,  0.087 sec
 * total energy  :   -73.3754828 Eh     change       -0.4968961E-03 Eh
   gradient norm :     0.0084296 Eh/α   predicted    -0.3377208E-03 ( -32.03%)
   displ. norm   :     0.4662237 α      lambda       -0.6589702E-03
   maximum displ.:     0.3147581 α      in ANC's #4, #9, #21, ...

........................................................................
.............................. CYCLE   37 ..............................
........................................................................

 iter      E             dE          RMSdq      gap      omega  full diag
   1    -74.0942349 -0.740942E+02  0.645E-02    3.10       0.0  T
   2    -74.0942399 -0.498482E-05  0.378E-02    3.10       1.0  T
   3    -74.0942403 -0.480033E-06  0.728E-03    3.10       2.1  T
   4    -74.0942408 -0.439519E-06  0.471E-03    3.10       3.2  T
   5    -74.0942408 -0.473862E-07  0.255E-03    3.10       6.0  T
   6    -74.0942408 -0.231874E-07  0.790E-04    3.10      19.3  T
   7    -74.0942409 -0.895822E-08  0.211E-04    3.10      72.2  T
     SCC iter.                  ...        0 min,  0.128 sec
     gradient                   ...        0 min,  0.041 sec
 * total energy  :   -73.3760222 Eh     change       -0.5393749E-03 Eh
   gradient norm :     0.0066544 Eh/α   predicted    -0.4011103E-03 ( -25.63%)
   displ. norm   :     0.4905850 α      lambda       -0.5823388E-03
   maximum displ.:     0.3426489 α      in ANC's #4, #9, #21, ...

........................................................................
.............................. CYCLE   38 ..............................
........................................................................

 iter      E             dE          RMSdq      gap      omega  full diag
   1    -74.0937255 -0.740937E+02  0.636E-02    3.10       0.0  T
   2    -74.0937308 -0.533387E-05  0.377E-02    3.10       1.0  T
   3    -74.0937314 -0.599455E-06  0.764E-03    3.10       2.0  T
   4    -74.0937318 -0.418032E-06  0.473E-03    3.10       3.2  T
   5    -74.0937319 -0.554971E-07  0.255E-03    3.10       6.0  T
   6    -74.0937319 -0.169109E-07  0.831E-04    3.10      18.3  T
   7    -74.0937319 -0.101270E-07  0.209E-04    3.10      73.0  T
     SCC iter.                  ...        0 min,  0.068 sec
     gradient                   ...        0 min,  0.042 sec
 * total energy  :   -73.3764663 Eh     change       -0.4440543E-03 Eh
   gradient norm :     0.0101501 Eh/α   predicted    -0.3612526E-03 ( -18.65%)
   displ. norm   :     0.4503527 α      lambda       -0.5557634E-03
   maximum displ.:     0.3200957 α      in ANC's #4, #9, #33, ...

........................................................................
.............................. CYCLE   39 ..............................
........................................................................

 iter      E             dE          RMSdq      gap      omega  full diag
   1    -74.0928702 -0.740929E+02  0.608E-02    3.10       0.0  T
   2    -74.0928732 -0.299116E-05  0.364E-02    3.10       1.0  T
   3    -74.0928734 -0.261213E-06  0.655E-03    3.10       2.3  T
   4    -74.0928738 -0.374099E-06  0.395E-03    3.10       3.9  T
   5    -74.0928739 -0.593479E-07  0.213E-03    3.10       7.1  T
   6    -74.0928739 -0.961631E-08  0.641E-04    3.10      23.8  T
   7    -74.0928739 -0.673947E-08  0.183E-04    3.10      83.4  T
     SCC iter.                  ...        0 min,  0.059 sec
     gradient                   ...        0 min,  0.080 sec
 * total energy  :   -73.3769233 Eh     change       -0.4570390E-03 Eh
   gradient norm :     0.0115304 Eh/α   predicted    -0.3342460E-03 ( -26.87%)
   displ. norm   :     0.5745293 α      lambda       -0.8364834E-03
   maximum displ.:     0.4061424 α      in ANC's #4, #9, #33, ...

........................................................................
.............................. CYCLE   40 ..............................
........................................................................

 iter      E             dE          RMSdq      gap      omega  full diag
   1    -74.0946064 -0.740946E+02  0.750E-02    3.11       0.0  T
   2    -74.0946098 -0.332594E-05  0.448E-02    3.10       1.0  T
   3    -74.0946098 -0.883460E-07  0.630E-03    3.10       2.4  T
   4    -74.0946104 -0.585801E-06  0.317E-03    3.10       4.8  T
   5    -74.0946106 -0.125245E-06  0.165E-03    3.10       9.2  T
   6    -74.0946106 -0.427036E-08  0.618E-04    3.10      24.7  T
   7    -74.0946106 -0.452656E-08  0.252E-04    3.10      60.6  T
     SCC iter.                  ...        0 min,  0.061 sec
     gradient                   ...        0 min,  0.052 sec
 * total energy  :   -73.3775874 Eh     change       -0.6641554E-03 Eh
   gradient norm :     0.0104879 Eh/α   predicted    -0.5562989E-03 ( -16.24%)
   displ. norm   :     0.6731807 α      lambda       -0.1031835E-02
   maximum displ.:     0.4717124 α      in ANC's #4, #9, #22, ...

........................................................................
.............................. CYCLE   41 ..............................
........................................................................

 iter      E             dE          RMSdq      gap      omega  full diag
   1    -74.0955723 -0.740956E+02  0.104E-01    3.10       0.0  T
   2    -74.0955753 -0.295548E-05  0.615E-02    3.10       1.0  T
   3    -74.0955752  0.226422E-07  0.683E-03    3.10       2.2  T
   4    -74.0955762 -0.957574E-06  0.350E-03    3.10       4.4  T
   5    -74.0955763 -0.106151E-06  0.163E-03    3.10       9.4  T
   6    -74.0955763 -0.653658E-08  0.571E-04    3.10      26.7  T
   7    -74.0955763 -0.327672E-08  0.269E-04    3.10      56.8  T
     SCC iter.                  ...        0 min,  0.074 sec
     gradient                   ...        0 min,  0.048 sec
 * total energy  :   -73.3783021 Eh     change       -0.7146553E-03 Eh
   gradient norm :     0.0134354 Eh/α   predicted    -0.7497230E-03 (   4.91%)
   displ. norm   :     0.6382009 α      lambda       -0.1073572E-02
   maximum displ.:     0.4343415 α      in ANC's #4, #9, #6, ...

........................................................................
.............................. CYCLE   42 ..............................
........................................................................

 iter      E             dE          RMSdq      gap      omega  full diag
   1    -74.0893945 -0.740894E+02  0.117E-01    3.09       0.0  T
   2    -74.0893994 -0.497468E-05  0.697E-02    3.09       1.0  T
   3    -74.0894004 -0.953413E-06  0.842E-03    3.10       1.8  T
   4    -74.0894014 -0.104227E-05  0.485E-03    3.10       3.1  T
   5    -74.0894015 -0.783509E-07  0.225E-03    3.10       6.8  T
   6    -74.0894015 -0.145398E-07  0.961E-04    3.10      15.9  T
   7    -74.0894015 -0.113973E-07  0.262E-04    3.10      58.3  T
     SCC iter.                  ...        0 min,  0.064 sec
     gradient                   ...        0 min,  0.085 sec
 * total energy  :   -73.3788044 Eh     change       -0.5023145E-03 Eh
   gradient norm :     0.0234161 Eh/α   predicted    -0.7554243E-03 (  50.39%)
   displ. norm   :     0.3757630 α      lambda       -0.1135214E-02
   maximum displ.:     0.2494123 α      in ANC's #4, #6, #9, ...
 * RMSD in coord.:     1.0723757 α      energy gain  -0.9890629E-01 Eh

generating ANC from exact Hessian ...
Using Lindh-Hessian (1995)
 Shifting diagonal of input Hessian by    1.0341032443249938E-002
 Lowest  eigenvalues of input Hessian
    0.010000    0.010057    0.000000    0.000000    0.000000    0.000000
    0.000000    0.000000    0.010467    0.010560    0.010685    0.010704
    0.010860    0.010979    0.011090    0.011170    0.011201    0.011398
 Highest eigenvalues
    1.884062    1.908099    1.968835    2.073614    2.270009    2.337966


........................................................................
.............................. CYCLE   43 ..............................
........................................................................

 iter      E             dE          RMSdq      gap      omega  full diag
   1    -74.0985917 -0.740986E+02  0.581E-02    3.09       0.0  T
   2    -74.0985972 -0.545818E-05  0.345E-02    3.09       1.0  T
   3    -74.0985979 -0.652348E-06  0.847E-03    3.09       1.8  T
   4    -74.0985985 -0.647396E-06  0.446E-03    3.09       3.4  T
   5    -74.0985986 -0.572261E-07  0.269E-03    3.09       5.7  T
   6    -74.0985986 -0.944041E-09  0.125E-03    3.09      12.2  T
   7    -74.0985986 -0.199243E-07  0.277E-04    3.09      55.1  T
   8    -74.0985986 -0.508678E-09  0.150E-04    3.09     101.9  T
     SCC iter.                  ...        0 min,  0.130 sec
     gradient                   ...        0 min,  0.046 sec
 * total energy  :   -73.3794346 Eh     change       -0.6301903E-03 Eh
   gradient norm :     0.0121203 Eh/α   predicted     0.0000000E+00 (-100.00%)
   displ. norm   :     0.1652052 α      lambda       -0.6204091E-03
   maximum displ.:     0.0607803 α      in ANC's #3, #24, #5, ...

........................................................................
.............................. CYCLE   44 ..............................
........................................................................

 iter      E             dE          RMSdq      gap      omega  full diag
   1    -74.0990417 -0.740990E+02  0.560E-02    3.09       0.0  T
   2    -74.0990440 -0.233793E-05  0.332E-02    3.09       1.0  T
   3    -74.0990444 -0.306455E-06  0.451E-03    3.09       3.4  T
   4    -74.0990445 -0.158393E-06  0.270E-03    3.09       5.6  T
   5    -74.0990445 -0.127423E-07  0.139E-03    3.09      11.0  T
   6    -74.0990445 -0.823907E-08  0.449E-04    3.09      33.9  T
   7    -74.0990445 -0.221135E-08  0.157E-04    3.09      97.3  T
     SCC iter.                  ...        0 min,  0.116 sec
     gradient                   ...        0 min,  0.053 sec
 * total energy  :   -73.3799674 Eh     change       -0.5327453E-03 Eh
   gradient norm :     0.0055862 Eh/α   predicted    -0.3186730E-03 ( -40.18%)
   displ. norm   :     0.5243549 α      lambda       -0.1397258E-02
   maximum displ.:     0.1987938 α      in ANC's #3, #24, #4, ...

........................................................................
.............................. CYCLE   45 ..............................
........................................................................

 iter      E             dE          RMSdq      gap      omega  full diag
   1    -74.0942933 -0.740943E+02  0.147E-01    3.09       0.0  T
   2    -74.0943235 -0.301151E-04  0.878E-02    3.09       1.0  T
   3    -74.0943269 -0.343889E-05  0.148E-02    3.09       1.0  T
   4    -74.0943282 -0.130963E-05  0.803E-03    3.09       1.9  T
   5    -74.0943283 -0.107938E-06  0.444E-03    3.09       3.4  T
   6    -74.0943284 -0.747610E-07  0.170E-03    3.09       9.0  T
   7    -74.0943284 -0.296633E-07  0.478E-04    3.09      31.9  T
   8    -74.0943284 -0.282701E-08  0.261E-04    3.09      58.4  T
     SCC iter.                  ...        0 min,  0.085 sec
     gradient                   ...        0 min,  0.079 sec
 * total energy  :   -73.3805367 Eh     change       -0.5693069E-03 Eh
   gradient norm :     0.0247501 Eh/α   predicted    -0.8908792E-03 (  56.48%)
   displ. norm   :     0.1323845 α      lambda       -0.7390404E-03
   maximum displ.:     0.0598354 α      in ANC's #3, #5, #38, ...

........................................................................
.............................. CYCLE   46 ..............................
........................................................................

 iter      E             dE          RMSdq      gap      omega  full diag
   1    -74.0975920 -0.740976E+02  0.612E-02    3.09       0.0  T
   2    -74.0975939 -0.183539E-05  0.358E-02    3.09       1.0  T
   3    -74.0975944 -0.510134E-06  0.379E-03    3.09       4.0  T
   4    -74.0975944 -0.684914E-07  0.223E-03    3.09       6.8  T
   5    -74.0975945 -0.118634E-07  0.128E-03    3.09      12.0  T
   6    -74.0975945 -0.262972E-08  0.370E-04    3.09      41.2  T
   7    -74.0975945 -0.137577E-08  0.147E-04    3.09     103.7  T
     SCC iter.                  ...        0 min,  0.060 sec
     gradient                   ...        0 min,  0.067 sec
 * total energy  :   -73.3810213 Eh     change       -0.4846358E-03 Eh
   gradient norm :     0.0101425 Eh/α   predicted    -0.3760010E-03 ( -22.42%)
   displ. norm   :     0.3708841 α      lambda       -0.6695645E-03
   maximum displ.:     0.1805369 α      in ANC's #3, #5, #4, ...

........................................................................
.............................. CYCLE   47 ..............................
........................................................................

 iter      E             dE          RMSdq      gap      omega  full diag
   1    -74.0982225 -0.740982E+02  0.689E-02    3.09       0.0  T
   2    -74.0982253 -0.273640E-05  0.408E-02    3.09       1.0  T
   3    -74.0982257 -0.436432E-06  0.406E-03    3.08       3.8  T
   4    -74.0982258 -0.124831E-06  0.211E-03    3.09       7.2  T
   5    -74.0982259 -0.119601E-07  0.101E-03    3.09      15.1  T
   6    -74.0982259 -0.541753E-08  0.457E-04    3.09      33.4  T
   7    -74.0982259 -0.125723E-08  0.161E-04    3.09      94.9  T
     SCC iter.                  ...        0 min,  0.205 sec
     gradient                   ...        0 min,  0.114 sec
 * total energy  :   -73.3815791 Eh     change       -0.5578389E-03 Eh
   gradient norm :     0.0092196 Eh/α   predicted    -0.3808343E-03 ( -31.73%)
   displ. norm   :     0.6310461 α      lambda       -0.1041307E-02
   maximum displ.:     0.3074096 α      in ANC's #3, #5, #4, ...

........................................................................
.............................. CYCLE   48 ..............................
........................................................................

 iter      E             dE          RMSdq      gap      omega  full diag
   1    -74.0970500 -0.740971E+02  0.112E-01    3.08       0.0  T
   2    -74.0970581 -0.808756E-05  0.664E-02    3.08       1.0  T
   3    -74.0970590 -0.902443E-06  0.698E-03    3.08       2.2  T
   4    -74.0970594 -0.426493E-06  0.380E-03    3.08       4.0  T
   5    -74.0970595 -0.301589E-07  0.211E-03    3.08       7.2  T
   6    -74.0970595 -0.158254E-07  0.874E-04    3.08      17.5  T
   7    -74.0970595 -0.641229E-08  0.240E-04    3.08      63.5  T
     SCC iter.                  ...        0 min,  0.893 sec
     gradient                   ...        0 min,  0.069 sec
 * total energy  :   -73.3824416 Eh     change       -0.8624814E-03 Eh
   gradient norm :     0.0115474 Eh/α   predicted    -0.7279914E-03 ( -15.59%)
   displ. norm   :     0.6882481 α      lambda       -0.1117841E-02
   maximum displ.:     0.3414124 α      in ANC's #3, #5, #4, ...

........................................................................
.............................. CYCLE   49 ..............................
........................................................................

 iter      E             dE          RMSdq      gap      omega  full diag
   1    -74.0940226 -0.740940E+02  0.119E-01    3.08       0.0  T
   2    -74.0940353 -0.126517E-04  0.706E-02    3.08       1.0  T
   3    -74.0940364 -0.112177E-05  0.102E-02    3.07       1.5  T
   4    -74.0940372 -0.817271E-06  0.586E-03    3.07       2.6  T
   5    -74.0940372 -0.526706E-07  0.334E-03    3.08       4.6  T
   6    -74.0940373 -0.600215E-07  0.114E-03    3.07      13.4  T
   7    -74.0940373 -0.122020E-07  0.275E-04    3.07      55.5  T
   8    -74.0940373 -0.103338E-08  0.151E-04    3.07     100.8  T
     SCC iter.                  ...        0 min,  0.912 sec
     gradient                   ...        0 min,  0.065 sec
 * total energy  :   -73.3831950 Eh     change       -0.7533875E-03 Eh
   gradient norm :     0.0190357 Eh/α   predicted    -0.8236740E-03 (   9.33%)
   displ. norm   :     0.4706744 α      lambda       -0.9023196E-03
   maximum displ.:     0.2475888 α      in ANC's #3, #5, #4, ...

[...]
C4-C3-C2-C1=  0.33            C4-C3-C2-H7=181.11            H8-C3-C2-C1=179.88            H8-C3-C2-H7=  0.65            
C5-C4-C3-C2=359.56            C5-C4-C3-H8=180.02            C21-C4-C3-C2=180.47           C21-C4-C3-H8=  0.93           
C6-C5-C4-C3=  0.64            C6-C5-C4-C21=179.70           H9-C5-C4-C3=182.63            H9-C5-C4-C21=  1.68           
C5-C6-C1-C2=  0.65            C5-C6-C1-C11=175.97           H10-C6-C1-C2=180.53           H10-C6-C1-C11=355.85          
C1-C6-C5-C4=359.25            C1-C6-C5-H9=177.34            H10-C6-C5-C4=179.37           H10-C6-C5-H9=357.47           

 CMA Distance (Angstroems)
 ---------------------------
R(CMA):  3.9403
           -------------------------------------------------
          |                Final Singlepoint                |
           -------------------------------------------------

          ...................................................
          :                      SETUP                      :
          :.................................................:
          :  # basis functions                 106          :
          :  # atomic orbitals                 106          :
          :  # shells                           64          :
          :  # electrons                       122          :
          :  max. iterations                   250          :
          :  Hamiltonian                  GFN2-xTB          :
          :  restarted?                      false          :
          :  GBSA solvation                   true          :
          :  PC potential                    false          :
          :  electronic temp.          300.0000000     K    :
          :  accuracy                    1.0000000          :
          :  -> integral cutoff          0.2500000E+02      :
          :  -> integral neglect         0.1000000E-07      :
          :  -> SCF convergence          0.1000000E-05 Eh   :
          :  -> wf. convergence          0.1000000E-03 e    :
          :  Broyden damping             0.4000000          :
          :  net charge                          2          :
          :  unpaired electrons                  0          :
          ...................................................

 iter      E             dE          RMSdq      gap      omega  full diag
   1    -74.1219257 -0.741219E+02  0.149E-04    3.25       0.0  T
   2    -74.1219257 -0.399751E-10  0.950E-05    3.25     160.6  T
   3    -74.1219257  0.180762E-10  0.561E-05    3.25     271.6  T

   *** convergence criteria satisfied after 3 iterations ***

         #    Occupation            Energy/Eh            Energy/eV
      -------------------------------------------------------------
         1        2.0000           -0.7675594             -20.8864
       ...           ...                  ...                  ...
        55        2.0000           -0.4542252             -12.3601
        56        2.0000           -0.4529200             -12.3246
        57        2.0000           -0.4477667             -12.1844
        58        2.0000           -0.4473911             -12.1741
        59        2.0000           -0.4423533             -12.0370
        60        2.0000           -0.4394694             -11.9586
        61        2.0000           -0.4246962             -11.5566 (HOMO)
        62                         -0.3054124              -8.3107 (LUMO)
        63                         -0.2575342              -7.0079
        64                         -0.2544802              -6.9248
        65                         -0.2135680              -5.8115
        66                         -0.1618277              -4.4036
       ...                                ...                  ...
       106                          1.1033231              30.0229
      -------------------------------------------------------------
                  HL-Gap            0.1192837 Eh            3.2459 eV
             Fermi-level           -0.3650543 Eh           -9.9336 eV

 SCC (total)                   0 d,  0 h,  0 min,  0.094 sec
 SCC setup                      ...        0 min,  0.003 sec (  3.552%)
 Dispersion                     ...        0 min,  0.003 sec (  2.771%)
 classical contributions        ...        0 min,  0.000 sec (  0.204%)
 integral evaluation            ...        0 min,  0.010 sec ( 10.744%)
 iterations                     ...        0 min,  0.025 sec ( 26.983%)
 molecular gradient             ...        0 min,  0.045 sec ( 47.771%)
 printout                       ...        0 min,  0.007 sec (  7.938%)

         :::::::::::::::::::::::::::::::::::::::::::::::::::::
         ::                     SUMMARY                     ::
         :::::::::::::::::::::::::::::::::::::::::::::::::::::
         :: total energy             -73.400457519393 Eh    ::
         :: total w/o Gsasa/hb       -73.335759785340 Eh    ::
         :: gradient norm              0.000299770953 Eh/a0 ::
         :: HOMO-LUMO gap              3.245875837120 eV    ::
         ::.................................................::
         :: SCC energy               -74.121884941768 Eh    ::
         :: -> isotropic ES            0.579678591308 Eh    ::
         :: -> anisotropic ES         -0.029754011143 Eh    ::
         :: -> anisotropic XC          0.009956361583 Eh    ::
         :: -> dispersion             -0.034801521546 Eh    ::
         :: -> Gsolv                  -0.353177523591 Eh    ::
         ::    -> Gelec               -0.288479789539 Eh    ::
         ::    -> Gsasa                0.002976693825 Eh    ::
         ::    -> Ghb                 -0.068755187576 Eh    ::
         ::    -> Gshift               0.001080759698 Eh    ::
         :: repulsion energy           0.721427422375 Eh    ::
         :: add. restraining           0.000000000000 Eh    ::
         :: total charge               2.000000000000 e     ::
         :::::::::::::::::::::::::::::::::::::::::::::::::::::

           -------------------------------------------------
          |                Property Printout                |
           -------------------------------------------------

    * Orbital Energies and Occupations

         #    Occupation            Energy/Eh            Energy/eV
      -------------------------------------------------------------
         1        2.0000           -0.7675594             -20.8864
       ...           ...                  ...                  ...
        49        2.0000           -0.4692934             -12.7701
        50        2.0000           -0.4667183             -12.7001
        51        2.0000           -0.4606607             -12.5352
        52        2.0000           -0.4596564             -12.5079
        53        2.0000           -0.4582993             -12.4710
        54        2.0000           -0.4549718             -12.3804
        55        2.0000           -0.4542252             -12.3601
        56        2.0000           -0.4529200             -12.3246
        57        2.0000           -0.4477667             -12.1844
        58        2.0000           -0.4473911             -12.1741
        59        2.0000           -0.4423533             -12.0370
        60        2.0000           -0.4394694             -11.9586
        61        2.0000           -0.4246962             -11.5566 (HOMO)
        62                         -0.3054124              -8.3107 (LUMO)
        63                         -0.2575342              -7.0079
        64                         -0.2544802              -6.9248
        65                         -0.2135680              -5.8115
        66                         -0.1618277              -4.4036
        67                         -0.1195157              -3.2522
        68                         -0.0134320              -0.3655
        69                          0.0234332               0.6376
        70                          0.0352273               0.9586
        71                          0.0451466               1.2285
        72                          0.0584661               1.5909
       ...                                ...                  ...
       106                          1.1033231              30.0229
      -------------------------------------------------------------
                  HL-Gap            0.1192837 Eh            3.2459 eV
             Fermi-level           -0.3650543 Eh           -9.9336 eV

     #   Z          covCN         q      C6AA      α(0)
     1   6 C        2.972    -0.011    28.291     8.725
     2   6 C        2.918    -0.023    28.579     8.767
     3   6 C        2.924    -0.023    28.568     8.765
     4   6 C        2.971    -0.020    28.503     8.757
     5   6 C        2.919    -0.030    28.738     8.791
     6   6 C        2.921    -0.020    28.495     8.754
     7   1 H        0.926     0.060     2.197     2.318
     8   1 H        0.926     0.104     1.746     2.066
     9   1 H        0.926     0.091     1.873     2.140
    10   1 H        0.926     0.055     2.258     2.350
    11   6 C        2.707     0.364    20.820     7.469
    12   8 O        0.857    -0.480    23.336     6.477
    13   8 O        1.703    -0.270    18.482     5.804
    14   6 C        3.683     0.067    19.650     6.347
    15   6 C        3.751    -0.135    23.156     6.863
    16   1 H        0.924     0.081     1.974     2.197
    17   1 H        0.924     0.070     2.084     2.258
    18   1 H        0.925     0.082     1.963     2.191
    19   1 H        0.925     0.065     2.139     2.287
    20   1 H        0.925     0.063     2.161     2.299
    21   6 C        2.698     0.360    20.889     7.480
    22   8 O        0.857    -0.417    22.016     6.291
    23   8 O        1.660    -0.369    20.250     6.075
    24   1 H        0.804     0.407     0.471     1.079
    25  48 Cd       4.123     0.456   190.613    26.501
    26   8 O        2.308    -0.536    23.621     6.564
    27   1 H        0.805     0.385     0.513     1.126
    28   1 H        0.806     0.404     0.477     1.085
    29   8 O        2.278    -0.564    24.264     6.653
    30   1 H        0.805     0.399     0.487     1.096
    31   1 H        0.805     0.400     0.483     1.092
    32   8 O        2.302    -0.545    23.817     6.591
    33   1 H        0.806     0.394     0.495     1.105
    34   1 H        0.805     0.402     0.480     1.088
    35   8 O        2.276    -0.562    24.219     6.647
    36   1 H        0.805     0.400     0.485     1.093
    37   1 H        0.805     0.399     0.486     1.095
    38   8 O        2.312    -0.541    23.737     6.580
    39   1 H        0.809     0.392     0.499     1.109
    40   1 H        0.805     0.404     0.477     1.085
    41   8 O        2.289    -0.562    24.212     6.646
    42   1 H        0.805     0.400     0.485     1.094
    43   1 H        0.805     0.402     0.481     1.089

 Mol. C6AA /au·bohr⁶  :      17723.784029
 Mol. C8AA /au·bohr⁸  :     477210.742830
 Mol. α(0) /au        :        205.887377


Wiberg/Mayer (AO) data.
largest (>0.10) Wiberg bond orders for each atom

 ---------------------------------------------------------------------------
     #   Z sym  total        # sym  WBO       # sym  WBO       # sym  WBO
 ---------------------------------------------------------------------------
     1   6 C    3.984 --     6 C    1.393     2 C    1.390    11 C    0.965
     2   6 C    3.987 --     3 C    1.457     1 C    1.390     7 H    0.967
                             5 C    0.106
     3   6 C    3.980 --     2 C    1.457     4 C    1.377     8 H    0.958
                             6 C    0.106
     4   6 C    3.986 --     5 C    1.381     3 C    1.377    21 C    1.021
     5   6 C    3.984 --     6 C    1.456     4 C    1.381     9 H    0.956
                             2 C    0.106
     6   6 C    3.987 --     5 C    1.456     1 C    1.393    10 H    0.968
                             3 C    0.106
     7   1 H    0.996 --     2 C    0.967
     8   1 H    0.988 --     3 C    0.958
     9   1 H    0.991 --     5 C    0.956
    10   1 H    0.996 --     6 C    0.968
    11   6 C    3.897 --    12 O    1.681    13 O    1.177     1 C    0.965
    12   8 O    1.981 --    11 C    1.681    13 O    0.167
    13   8 O    2.334 --    11 C    1.177    14 C    0.910    12 O    0.167
    14   6 C    3.898 --    15 C    1.016    17 H    0.965    16 H    0.965
                            13 O    0.910
    15   6 C    3.985 --    14 C    1.016    20 H    0.985    19 H    0.984
                            18 H    0.978
    16   1 H    0.993 --    14 C    0.965
    17   1 H    0.995 --    14 C    0.965
    18   1 H    0.992 --    15 C    0.978
    19   1 H    0.995 --    15 C    0.984
    20   1 H    0.996 --    15 C    0.985
    21   6 C    3.925 --    22 O    1.649    23 O    1.187     4 C    1.021
    22   8 O    2.041 --    21 C    1.649    23 O    0.159
    23   8 O    2.247 --    21 C    1.187    24 H    0.803    22 O    0.159
    24   1 H    0.834 --    23 O    0.803
    25  48 Cd   2.143 --    38 O    0.346    26 O    0.346    32 O    0.337
                            41 O    0.320    35 O    0.316    29 O    0.315
    26   8 O    2.126 --    28 H    0.826    27 H    0.820    25 Cd   0.346
    27   1 H    0.852 --    26 O    0.820
    28   1 H    0.837 --    26 O    0.826
    29   8 O    2.073 --    30 H    0.831    31 H    0.828    25 Cd   0.315
    30   1 H    0.841 --    29 O    0.831
    31   1 H    0.839 --    29 O    0.828
    32   8 O    2.112 --    34 H    0.828    33 H    0.821    25 Cd   0.337
    33   1 H    0.845 --    32 O    0.821
    34   1 H    0.838 --    32 O    0.828
    35   8 O    2.077 --    37 H    0.831    36 H    0.830    25 Cd   0.316
    36   1 H    0.840 --    35 O    0.830
    37   1 H    0.841 --    35 O    0.831
    38   8 O    2.123 --    40 H    0.827    39 H    0.811    25 Cd   0.346
    39   1 H    0.846 --    38 O    0.811
    40   1 H    0.837 --    38 O    0.827
    41   8 O    2.077 --    42 H    0.830    43 H    0.827    25 Cd   0.320
    42   1 H    0.840 --    41 O    0.830
    43   1 H    0.838 --    41 O    0.827
 ---------------------------------------------------------------------------

Topologies differ in total number of bonds
Writing topology from bond orders to xtbtopo.mol

molecular dipole:
                 x           y           z       tot (Debye)
 q only:      -26.535     -10.747      -2.108
   full:      -26.011     -10.637      -2.062      71.619
molecular quadrupole (traceless):
                xx          xy          yy          xz          yz          zz
 q only:      291.596     216.323     -85.526       6.203       6.538    -206.070
  q+dip:      290.578     213.618     -85.384       5.430      10.911    -205.194
   full:      288.855     212.987     -86.090       6.099       8.576    -202.765

           -------------------------------------------------
          |                Geometry Summary                 |
           -------------------------------------------------

      molecular mass/u    :      414.6876625
   center of mass at/Å    :       -3.9169409      -1.7292806       0.0924594
  moments of inertia/u·Å² :        0.8243155E+03   0.7735082E+04   0.8005618E+04
rotational constants/cm⁻¹ :        0.2045046E-01   0.2179373E-02   0.2105725E-02

 * 40 selected distances

     #   Z          #   Z                                           value/Å
     1   6 C        2   6 C                                       1.3934767
     2   6 C        3   6 C                                       1.3803723
     3   6 C        4   6 C                                       1.3956824
     4   6 C        5   6 C                                       1.3953236
     1   6 C        6   6 C                                       1.3922302
     5   6 C        6   6 C                                       1.3815651
     2   6 C        7   1 H                                       1.0787164
     3   6 C        8   1 H                                       1.0782101
     5   6 C        9   1 H                                       1.0787394
     6   6 C       10   1 H                                       1.0789345
    11   6 C       12   8 O                                       1.2162698
    11   6 C       13   8 O                                       1.3218544
    13   8 O       14   6 C                                       1.4380978
    14   6 C       15   6 C                                       1.5202357
    14   6 C       16   1 H                                       1.0934502
    14   6 C       17   1 H                                       1.0926226
    15   6 C       18   1 H                                       1.0850344
    15   6 C       19   1 H                                       1.0861161
    15   6 C       20   1 H                                       1.0865932
    21   6 C       22   8 O                                       1.2179008
    21   6 C       23   8 O                                       1.3221198
    23   8 O       24   1 H                                       0.9717764
    25  48 Cd      26   8 O                                       2.1185586
    26   8 O       27   1 H                                       0.9720491
    26   8 O       28   1 H                                       0.9682033
    25  48 Cd      29   8 O                                       2.1833242
    29   8 O       30   1 H                                       0.9673383
    29   8 O       31   1 H                                       0.9663188
    25  48 Cd      32   8 O                                       2.1336685
    32   8 O       33   1 H                                       0.9714435
Note: The following floating-point exceptions are signalling: IEEE_UNDERFLOW_FLAG IEEE_DENORMAL
normal termination of xtb
    32   8 O       34   1 H                                       0.9672436
    25  48 Cd      35   8 O                                       2.1879922 (max)
    35   8 O       36   1 H                                       0.9668133
    35   8 O       37   1 H                                       0.9671011
    25  48 Cd      38   8 O                                       2.1072747
    38   8 O       39   1 H                                       0.9740196
    38   8 O       40   1 H                                       0.9680394
    25  48 Cd      41   8 O                                       2.1640792
    41   8 O       42   1 H                                       0.9665972
    41   8 O       43   1 H                                       0.9657826 (min)

 * 5 distinct bonds (by element types)

   Z      Z             #   av. dist./Å        max./Å        min./Å
   1 H    6 C           9     1.0842686     1.0934502     1.0782101
   6 C    6 C           7     1.4084123     1.5202357     1.3803723
   1 H    8 O          13     0.9686712     0.9740196     0.9657826
   6 C    8 O           5     1.3032485     1.4380978     1.2162698
   8 O   48 Cd          6     2.1491496     2.1879922     2.1072747


optimized geometry written to: xtbopt.xyz


           -------------------------------------------------
          | TOTAL ENERGY              -73.400457519393 Eh   |
          | GRADIENT NORM               0.000299770953 Eh/α |
          | HOMO-LUMO GAP               3.245875837120 eV   |
           -------------------------------------------------

------------------------------------------------------------------------
 * finished run on 2026/05/26 at 02:25:48.250     
------------------------------------------------------------------------
 total:
 * wall-time:     0 d,  0 h,  0 min, 54.887 sec
 *  cpu-time:     0 d,  0 h,  1 min, 31.771 sec
 * ratio c/w:     1.672 speedup
 SCF:
 * wall-time:     0 d,  0 h,  0 min,  1.024 sec
 *  cpu-time:     0 d,  0 h,  0 min,  1.264 sec
 * ratio c/w:     1.234 speedup
 ANC optimizer:
 * wall-time:     0 d,  0 h,  0 min, 53.777 sec
 *  cpu-time:     0 d,  0 h,  1 min, 30.381 sec
 * ratio c/w:     1.681 speedup

