      -----------------------------------------------------------      
     |                   =====================                   |     
     |                           x T B                           |     
     |                   =====================                   |     
     |                         S. Grimme                         |     
     |          Mulliken Center for Theoretical Chemistry        |     
     |                    University of Bonn                     |     
      -----------------------------------------------------------      

   * xtb version 6.7.1 (edcfbbe) compiled by 'conda@c0858423619e' on 2025-09-04

   xtb is free software: you can redistribute it and/or modify it under
   the terms of the GNU Lesser General Public License as published by
   the Free Software Foundation, either version 3 of the License, or
   (at your option) any later version.
   
   xtb is distributed in the hope that it will be useful,
   but WITHOUT ANY WARRANTY; without even the implied warranty of
   MERCHANTABILITY or FITNESS FOR A PARTICULAR PURPOSE.  See the
   GNU Lesser General Public License for more details.
   
   Cite this work as:
   * C. Bannwarth, E. Caldeweyher, S. Ehlert, A. Hansen, P. Pracht,
     J. Seibert, S. Spicher, S. Grimme, WIREs Comput. Mol. Sci., 2020, 11,
     e01493. DOI: 10.1002/wcms.1493
   
   for GFN2-xTB:
   * C. Bannwarth, S. Ehlert and S. Grimme., J. Chem. Theory Comput., 2019,
     15, 1652-1671. DOI: 10.1021/acs.jctc.8b01176
   for GFN1-xTB:
   * S. Grimme, C. Bannwarth, P. Shushkov, J. Chem. Theory Comput., 2017,
     13, 1989-2009. DOI: 10.1021/acs.jctc.7b00118
   for GFN0-xTB:
   * P. Pracht, E. Caldeweyher, S. Ehlert, S. Grimme, ChemRxiv, 2019, preprint.
     DOI: 10.26434/chemrxiv.8326202.v1
   for GFN-FF:
   * S. Spicher and S. Grimme, Angew. Chem. Int. Ed., 2020, 59, 15665-15673.
     DOI: 10.1002/anie.202004239
   
   for ALPB and GBSA implicit solvation:
   * S. Ehlert, M. Stahn, S. Spicher, S. Grimme, J. Chem. Theory Comput.,
     2021, 17, 4250-4261. DOI: 10.1021/acs.jctc.1c00471
   
   for ddCOSMO and CPCM-X implicit solvation:
   * M. Stahn, S. Ehlert, S. Grimme, J. Phys. Chem. A,
     2023, XX, XXXX-XXXX. DOI: 10.1021/acs.jpca.3c04382
   
   for DFT-D4:
   * E. Caldeweyher, C. Bannwarth and S. Grimme, J. Chem. Phys., 2017,
     147, 034112. DOI: 10.1063/1.4993215
   * E. Caldeweyher, S. Ehlert, A. Hansen, H. Neugebauer, S. Spicher,
     C. Bannwarth and S. Grimme, J. Chem. Phys., 2019, 150, 154122.
     DOI: 10.1063/1.5090222
   * E. Caldeweyher, J.-M. Mewes, S. Ehlert and S. Grimme, Phys. Chem. Chem. Phys.
     2020, 22, 8499-8512. DOI: 10.1039/D0CP00502A
   
   for sTDA-xTB:
   * S. Grimme and C. Bannwarth, J. Chem. Phys., 2016, 145, 054103.
     DOI: 10.1063/1.4959605
   
   in the mass-spec context:
   * V. Asgeirsson, C. Bauer and S. Grimme, Chem. Sci., 2017, 8, 4879.
     DOI: 10.1039/c7sc00601b
   * J. Koopman and S. Grimme, ACS Omega 2019, 4, 12, 15120-15133.
     DOI: 10.1021/acsomega.9b02011
   
   for metadynamics refer to:
   * S. Grimme, J. Chem. Theory Comput., 2019, 155, 2847-2862
     DOI: 10.1021/acs.jctc.9b00143
   
   for SPH calculations refer to:
   * S. Spicher and S. Grimme, J. Chem. Theory Comput., 2021, 17, 1701-1714
     DOI: 10.1021/acs.jctc.0c01306
   
   for ONIOM refer to:
   * C. Plett, A. Katbashev, S. Ehlert, S. Grimme, M. Bursch,
     Phys. Chem. Chem. Phys., 2023, 25, 17860-17868. DOI: 10.1039/D3CP02178E
   
   for DIPRO refer to:
   * J. Kohn, N. Gildemeister, S. Grimme, D. Fazzi, A. Hansen,
     J. Chem. Phys., 2023, just accepted.
   
   for PTB refer to:
   * S. Grimme, M. Mueller, A. Hansen, J. Chem. Phys., 2023, 158, 124111.
     DOI: 10.1063/5.0137838
   
   with help from (in alphabetical order)
   P. Atkinson, C. Bannwarth, F. Bohle, G. Brandenburg, E. Caldeweyher
   M. Checinski, S. Dohm, S. Ehlert, S. Ehrlich, I. Gerasimov, C. Hölzer
   A. Katbashev, J. Kohn, J. Koopman, C. Lavigne, S. Lehtola, F. März, M. Müller,
   F. Musil, H. Neugebauer, J. Pisarek, C. Plett, P. Pracht, F. Pultar,
   J. Seibert, P. Shushkov, S. Spicher, M. Stahn, M. Steiner, T. Strunk,
   J. Stückrath, T. Rose, and J. Unsleber
   
 * started run on 2026/05/26 at 02:20:47.793     
   ID    Z sym.   atoms
    1    6 C      1-6, 11, 14, 15, 21, 24, 25
    2    1 H      7-10, 16-20, 26-30, 33, 34, 36, 37, 39, 40, 42, 43, 45, 46,
                  48, 49
    3    8 O      12, 13, 22, 23, 32, 35, 38, 41, 44, 47
    4   48 Cd     31

           -------------------------------------------------
          |                Calculation Setup                |
           -------------------------------------------------

          program call               : /content/xtb_env/bin/xtb input.xyz --gfn 2 --opt tight --alpb water --chrg 2 --uhf 0
          hostname                   : 01035569fb61
          coordinate file            : input.xyz
          omp threads                :                     2


molecular fragmentation (1/2 indicates fragments):
1111111111111111111111111111111111111111222222222
# atoms in fragment 1/2:    40     9
 fragment masses (1/2) :      388.70       54.05
CMA distance (Bohr)    :   7.713
constraining FC (au)   :  0.0500

           -------------------------------------------------
          |                 G F N 2 - x T B                 |
           -------------------------------------------------

        Reference                      10.1021/acs.jctc.8b01176
      * Hamiltonian:
        H0-scaling (s, p, d)           1.850000    2.230000    2.230000
        zeta-weighting                 0.500000
      * Dispersion:
        s8                             2.700000
        a1                             0.520000
        a2                             5.000000
        s9                             5.000000
      * Repulsion:
        kExp                           1.500000    1.000000
        rExp                           1.000000
      * Coulomb:
        alpha                          2.000000
        third order                    shell-resolved
        anisotropic                    true
        a3                             3.000000
        a5                             4.000000
        cn-shift                       1.200000
        cn-exp                         4.000000
        max-rad                        5.000000

      * Solvation model:               ALPB
        Solvent                        water
        Parameter file                 internal GFN2-xTB/ALPB
        Dielectric constant                8.0200E+01
        Reference state                gsolv [1 M gas/solution]
        Free energy shift                  1.0808E-03 Eh       6.7819E-01 kcal/mol
        Temperature                        2.9815E+02 K
        Density                            1.0000E+00 kg/L
        Solvent mass                       1.8000E+01 g/mol
        Interaction kernel             P16
        Born radius scaling (c1)           1.4744E+00
        Born radii integrator          GBOBC
        Born offset                        0.0000E+00 a0       0.0000E+00 AA
        H-bond correction              true
        Ion screening                  false
        Surface tension                    1.0000E-05 Eh       1.5569E+01 dyn/cm
        Grid points                               230 per atom

          ...................................................
          :                      SETUP                      :
          :.................................................:
          :  # basis functions                 118          :
          :  # atomic orbitals                 118          :
          :  # shells                           72          :
          :  # electrons                       134          :
          :  max. iterations                   250          :
          :  Hamiltonian                  GFN2-xTB          :
          :  restarted?                      false          :
          :  GBSA solvation                   true          :
          :  PC potential                    false          :
          :  electronic temp.          300.0000000     K    :
          :  accuracy                    1.0000000          :
          :  -> integral cutoff          0.2500000E+02      :
          :  -> integral neglect         0.1000000E-07      :
          :  -> SCF convergence          0.1000000E-05 Eh   :
          :  -> wf. convergence          0.1000000E-03 e    :
          :  Broyden damping             0.4000000          :
          :  net charge                          2          :
          :  unpaired electrons                  0          :
          ...................................................

 iter      E             dE          RMSdq      gap      omega  full diag
   1    -74.8825518 -0.748826E+02  0.729E+00    1.00       0.0  T
   2    -76.3249191 -0.144237E+01  0.681E+00    0.14       1.0  T
   3    -77.5940420 -0.126912E+01  0.458E+00    0.36       1.0  T
   4    -77.8641618 -0.270120E+00  0.339E+00    0.83       1.0  T
   5    -77.3508299  0.513332E+00  0.358E+00    0.81       1.0  T
   6    -77.9532939 -0.602464E+00  0.139E+00    1.12       1.0  T
   7    -77.9775336 -0.242398E-01  0.988E-01    0.69       1.0  T
   8    -77.9799859 -0.245223E-02  0.758E-01    0.64       1.0  T
   9    -77.9873416 -0.735575E-02  0.577E-01    0.38       1.0  T
  10    -77.9900530 -0.271141E-02  0.434E-01    0.28       1.0  T
  11    -77.9927215 -0.266846E-02  0.293E-01    0.18       1.0  T
  12    -77.9951831 -0.246164E-02  0.909E-02    0.13       1.0  T
  13    -77.9887818  0.640138E-02  0.375E-01    0.08       1.0  T
  14    -77.9944882 -0.570648E-02  0.145E-01    0.17       1.0  T
  15    -77.9939715  0.516700E-03  0.177E-01    0.10       1.0  T
  16    -77.9953810 -0.140950E-02  0.337E-02    0.14       1.0  T
  17    -77.9951636  0.217425E-03  0.767E-02    0.15       1.0  T
  18    -77.9952246 -0.610127E-04  0.672E-02    0.15       1.0  T
  19    -77.9953774 -0.152743E-03  0.340E-02    0.14       1.0  T
  20    -77.9954289 -0.515700E-04  0.600E-03    0.13       2.4  T
  21    -77.9954306 -0.162714E-05  0.654E-04    0.13      21.9  T
  22    -77.9954303  0.261551E-06  0.251E-03    0.13       5.7  T
  23    -77.9954306 -0.280981E-06  0.179E-04    0.13      79.7  T
  24    -77.9954306 -0.127673E-08  0.393E-05    0.13     363.1  T

   *** convergence criteria satisfied after 24 iterations ***

         #    Occupation            Energy/Eh            Energy/eV
      -------------------------------------------------------------
         1        2.0000           -0.9700415             -26.3962
       ...           ...                  ...                  ...
        61        2.0000           -0.3598245              -9.7913
        62        2.0000           -0.3552407              -9.6666
        63        2.0000           -0.3479313              -9.4677
        64        2.0000           -0.2909421              -7.9169
        65        2.0000           -0.2854684              -7.7680
        66        1.9680           -0.2493182              -6.7843
        67        1.8665           -0.2479104              -6.7460 (HOMO)
        68        0.1655           -0.2431193              -6.6156 (LUMO)
        69                         -0.1951596              -5.3106
        70                         -0.1903366              -5.1793
        71                         -0.1807949              -4.9197
        72                         -0.1235746              -3.3626
       ...                                ...                  ...
       118                         28.0478081             763.2197
      -------------------------------------------------------------
                  HL-Gap            0.0047911 Eh            0.1304 eV
             Fermi-level           -0.2454046 Eh           -6.6778 eV

 SCC (total)                   0 d,  0 h,  0 min,  0.610 sec
 SCC setup                      ...        0 min,  0.008 sec (  1.286%)
 Dispersion                     ...        0 min,  0.008 sec (  1.312%)
 classical contributions        ...        0 min,  0.004 sec (  0.580%)
 integral evaluation            ...        0 min,  0.029 sec (  4.749%)
 iterations                     ...        0 min,  0.498 sec ( 81.627%)
 molecular gradient             ...        0 min,  0.062 sec ( 10.118%)
 printout                       ...        0 min,  0.002 sec (  0.320%)

         :::::::::::::::::::::::::::::::::::::::::::::::::::::
         ::                     SUMMARY                     ::
         :::::::::::::::::::::::::::::::::::::::::::::::::::::
         :: total energy             -71.003558659547 Eh    ::
         :: total w/o Gsasa/hb       -70.937124659821 Eh    ::
         :: gradient norm             20.650699112880 Eh/a0 ::
         :: HOMO-LUMO gap              0.130373053620 eV    ::
         ::.................................................::
         :: SCC energy               -77.995627105374 Eh    ::
         :: -> isotropic ES            0.841059630225 Eh    ::
         :: -> anisotropic ES          0.035865491214 Eh    ::
         :: -> anisotropic XC         -0.008448231060 Eh    ::
         :: -> dispersion             -0.047657871332 Eh    ::
         :: -> Gsolv                  -0.541620766827 Eh    ::
         ::    -> Gelec               -0.475186767101 Eh    ::
         ::    -> Gsasa                0.000469578546 Eh    ::
         ::    -> Ghb                 -0.067984337971 Eh    ::
         ::    -> Gshift               0.001080759698 Eh    ::
         :: repulsion energy           6.992068445827 Eh    ::
         :: add. restraining           0.000000000000 Eh    ::
         :: total charge               2.000000001785 e     ::
         :::::::::::::::::::::::::::::::::::::::::::::::::::::

      ----------------------------------------------------------- 
     |                   =====================                   |
     |                        A N C O P T                        |
     |                   =====================                   |
     |               Approximate Normal Coordinate               |
     |                Rational Function Optimizer                |
      ----------------------------------------------------------- 
      ----------------------------------------------------------- 
     |                   =====================                   |
     |                        A N C O P T                        |
     |                   =====================                   |
     |               Approximate Normal Coordinate               |
     |                Rational Function Optimizer                |
      ----------------------------------------------------------- 

          ...................................................
          :                      SETUP                      :
          :.................................................:
          :   optimization level             tight          :
          :   max. optcycles                   245          :
          :   ANC micro-cycles                  20          :
          :   degrees of freedom               141          :
          :.................................................:
          :   RF solver                   davidson          :
          :   write xtbopt.log                true          :
          :   linear?                        false          :
          :   energy convergence         0.1000000E-05 Eh   :
          :   grad. convergence          0.8000000E-03 Eh/α :
          :   maxmium RF displ.          1.0000000          :
          :   Hlow (freq-cutoff)         0.1000000E-01      :
          :   Hmax (freq-cutoff)         5.0000000          :
          :   S6 in model hess.         20.0000000          :
          ...................................................

generating ANC from exact Hessian ...
Using Lindh-Hessian (1995)
 Shifting diagonal of input Hessian by    1.0170355653519965E-002
 Lowest  eigenvalues of input Hessian
    0.010000    0.010101    0.000000    0.000000    0.000000    0.000000
    0.000000    0.000000    0.010312    0.010369    0.010650    0.010660
    0.010848    0.010896    0.011003    0.011475    0.011784    0.011822
 Highest eigenvalues
    7.552221   12.051096   13.185933   23.915297   25.142137   27.196106


........................................................................
.............................. CYCLE    1 ..............................
........................................................................

 iter      E             dE          RMSdq      gap      omega  full diag
   1    -77.9954306 -0.779954E+02  0.101E-04    0.13       0.0  T
   2    -77.9954306  0.248062E-07  0.710E-04    0.13      20.1  T
   3    -77.9954306 -0.252437E-07  0.256E-05    0.13     558.6  T
     SCC iter.                  ...        0 min,  0.076 sec
     gradient                   ...        0 min,  0.091 sec
 * total energy  :   -71.0035587 Eh     change       -0.2422951E-10 Eh
   gradient norm :    20.6506990 Eh/α   predicted     0.0000000E+00 (-100.00%)
   displ. norm   :     0.8889043 α      lambda       -0.1814991E+02
   maximum displ.:     0.8160045 α      in ANC's #135, #132, #136, ...

........................................................................
.............................. CYCLE    2 ..............................
........................................................................

 iter      E             dE          RMSdq      gap      omega  full diag
   1    -77.6923225 -0.776923E+02  0.322E+00    0.31       0.0  T
   2    -77.8572982 -0.164976E+00  0.320E+00    1.29       1.0  T
   3    -78.1912532 -0.333955E+00  0.175E+00    1.04       1.0  T
   4    -78.2063783 -0.151250E-01  0.142E+00    0.69       1.0  T
   5    -78.2352653 -0.288870E-01  0.858E-01    0.40       1.0  T
   6    -78.2471376 -0.118722E-01  0.471E-01    0.14       1.0  T
   7    -78.2497974 -0.265983E-02  0.273E-01    0.18       1.0  T
   8    -78.2496253  0.172136E-03  0.189E-01    0.15       1.0  T
   9    -78.2470522  0.257304E-02  0.303E-01    0.24       1.0  T
  10    -78.2496545 -0.260226E-02  0.145E-01    0.15       1.0  T
  11    -78.2501395 -0.485012E-03  0.908E-02    0.19       1.0  T
  12    -78.2503198 -0.180281E-03  0.614E-02    0.19       1.0  T
  13    -78.2504660 -0.146226E-03  0.393E-03    0.17       3.6  T
  14    -78.2504649  0.106826E-05  0.600E-03    0.18       2.4  T
  15    -78.2504662 -0.129596E-05  0.907E-04    0.17      15.8  T
  16    -78.2504663 -0.186254E-07  0.234E-04    0.17      61.0  T
  17    -78.2504662  0.396286E-07  0.101E-03    0.17      14.1  T
  18    -78.2504663 -0.394079E-07  0.160E-04    0.17      89.2  T
     SCC iter.                  ...        0 min,  0.336 sec
     gradient                   ...        0 min,  0.085 sec
 * total energy  :   -76.5530100 Eh     change       -0.5549451E+01 Eh
   gradient norm :     2.2047437 Eh/α   predicted    -0.1642542E+02 ( 195.98%)
   displ. norm   :     0.6456391 α      lambda       -0.1117451E+01
   maximum displ.:     0.3508456 α      in ANC's #77, #137, #99, ...

........................................................................
.............................. CYCLE    3 ..............................
........................................................................

 iter      E             dE          RMSdq      gap      omega  full diag
   1    -78.2041740 -0.782042E+02  0.289E+00    0.16       0.0  T
   2    -78.3939842 -0.189810E+00  0.234E+00    1.37       1.0  T
   3    -78.5624127 -0.168428E+00  0.133E+00    1.06       1.0  T
   4    -78.5771268 -0.147142E-01  0.100E+00    0.78       1.0  T
   5    -78.5927145 -0.155876E-01  0.706E-01    0.65       1.0  T
   6    -78.5989172 -0.620269E-02  0.474E-01    0.52       1.0  T
   7    -78.5908905  0.802666E-02  0.563E-01    0.12       1.0  T
   8    -78.5992033 -0.831284E-02  0.371E-01    0.52       1.0  T
   9    -78.6000875 -0.884183E-03  0.320E-01    0.44       1.0  T
  10    -78.6012414 -0.115383E-02  0.250E-01    0.35       1.0  T
  11    -78.6031431 -0.190171E-02  0.790E-02    0.23       1.0  T
  12    -78.6033714 -0.228344E-03  0.653E-03    0.20       2.2  T
  13    -78.6033513  0.200633E-04  0.237E-02    0.21       1.0  T
  14    -78.6033481  0.327717E-05  0.248E-02    0.20       1.0  T
  15    -78.6033709 -0.228150E-04  0.597E-03    0.21       2.4  T
  16    -78.6033715 -0.620649E-06  0.433E-03    0.20       3.3  T
  17    -78.6033722 -0.709197E-06  0.303E-04    0.20      47.2  T
  18    -78.6033722  0.731646E-08  0.519E-04    0.20      27.5  T
     SCC iter.                  ...        0 min,  0.242 sec
     gradient                   ...        0 min,  0.058 sec
 * total energy  :   -77.2947540 Eh     change       -0.7417440E+00 Eh
   gradient norm :     1.1043585 Eh/α   predicted    -0.7916294E+00 (   6.73%)
   displ. norm   :     0.6883352 α      lambda       -0.5456514E+00
   maximum displ.:     0.4064605 α      in ANC's #77, #60, #72, ...

........................................................................
.............................. CYCLE    4 ..............................
........................................................................

 iter      E             dE          RMSdq      gap      omega  full diag
   1    -78.8184329 -0.788184E+02  0.918E-01    0.18       0.0  T
   2    -78.8290177 -0.105848E-01  0.656E-01    0.76       1.0  T
   3    -78.8378357 -0.881804E-02  0.367E-01    0.47       1.0  T
   4    -78.8377757  0.599995E-04  0.300E-01    0.28       1.0  T
   5    -78.8375471  0.228583E-03  0.223E-01    0.23       1.0  T
   6    -78.8392433 -0.169622E-02  0.760E-02    0.36       1.0  T
   7    -78.8393577 -0.114401E-03  0.422E-02    0.32       1.0  T
   8    -78.8393641 -0.632381E-05  0.251E-02    0.31       1.0  T
   9    -78.8393745 -0.104088E-04  0.103E-02    0.32       1.4  T
  10    -78.8393776 -0.310644E-05  0.437E-03    0.33       3.3  T
  11    -78.8393779 -0.363130E-06  0.181E-03    0.32       7.9  T
  12    -78.8393780 -0.180247E-07  0.861E-04    0.33      16.6  T
  13    -78.8393780 -0.154018E-07  0.395E-04    0.33      36.2  T
     SCC iter.                  ...        0 min,  0.215 sec
     gradient                   ...        0 min,  0.100 sec
 * total energy  :   -77.7454588 Eh     change       -0.4507048E+00 Eh
   gradient norm :     0.7913223 Eh/α   predicted    -0.4020922E+00 ( -10.79%)
   displ. norm   :     0.7431919 α      lambda       -0.4183869E+00
   maximum displ.:     0.4188356 α      in ANC's #77, #60, #72, ...

........................................................................
.............................. CYCLE    5 ..............................
........................................................................

 iter      E             dE          RMSdq      gap      omega  full diag
   1    -78.9742228 -0.789742E+02  0.142E+00    0.17       0.0  T
   2    -79.0279411 -0.537183E-01  0.974E-01    0.89       1.0  T
   3    -79.0560795 -0.281384E-01  0.458E-01    0.63       1.0  T
   4    -79.0589378 -0.285831E-02  0.316E-01    0.52       1.0  T
   5    -79.0603172 -0.137942E-02  0.210E-01    0.48       1.0  T
   6    -79.0605451 -0.227820E-03  0.931E-02    0.47       1.0  T
   7    -79.0608058 -0.260696E-03  0.469E-02    0.49       1.0  T
   8    -79.0608338 -0.280712E-04  0.256E-02    0.49       1.0  T
   9    -79.0608404 -0.658000E-05  0.719E-03    0.49       2.0  T
  10    -79.0608411 -0.675018E-06  0.392E-03    0.49       3.6  T
  11    -79.0608413 -0.197474E-06  0.172E-03    0.49       8.3  T
  12    -79.0608413 -0.441700E-07  0.686E-04    0.49      20.8  T
  13    -79.0608413 -0.483313E-08  0.322E-04    0.49      44.4  T
     SCC iter.                  ...        0 min,  0.180 sec
     gradient                   ...        0 min,  0.107 sec
 * total energy  :   -78.0985539 Eh     change       -0.3530951E+00 Eh
   gradient norm :     0.5605937 Eh/α   predicted    -0.3247382E+00 (  -8.03%)
   displ. norm   :     0.7816507 α      lambda       -0.3153194E+00
   maximum displ.:     0.4148425 α      in ANC's #77, #60, #54, ...

........................................................................
.............................. CYCLE    6 ..............................
........................................................................

 iter      E             dE          RMSdq      gap      omega  full diag
   1    -79.0563684 -0.790564E+02  0.206E+00    0.10       0.0  T
   2    -79.1404140 -0.840456E-01  0.166E+00    1.84       1.0  T
   3    -79.2295050 -0.890910E-01  0.711E-01    0.93       1.0  T
   4    -79.2366452 -0.714019E-02  0.534E-01    0.61       1.0  T
   5    -79.2401720 -0.352688E-02  0.347E-01    0.47       1.0  T
   6    -79.2419205 -0.174842E-02  0.106E-01    0.25       1.0  T
   7    -79.2419124  0.805759E-05  0.602E-02    0.20       1.0  T
   8    -79.2420036 -0.911929E-04  0.239E-02    0.24       1.0  T
   9    -79.2420105 -0.690316E-05  0.887E-03    0.24       1.6  T
  10    -79.2420120 -0.145008E-05  0.438E-03    0.24       3.3  T
  11    -79.2420123 -0.351093E-06  0.269E-03    0.24       5.3  T
  12    -79.2420124 -0.109372E-06  0.923E-04    0.24      15.5  T
  13    -79.2420124 -0.115034E-07  0.444E-04    0.24      32.2  T
     SCC iter.                  ...        0 min,  0.280 sec
     gradient                   ...        0 min,  0.061 sec
 * total energy  :   -78.3658283 Eh     change       -0.2672744E+00 Eh
   gradient norm :     0.4127667 Eh/α   predicted    -0.2539863E+00 (  -4.97%)
   displ. norm   :     0.7850984 α      lambda       -0.2350096E+00
   maximum displ.:     0.3923733 α      in ANC's #77, #60, #54, ...

........................................................................
.............................. CYCLE    7 ..............................
........................................................................

 iter      E             dE          RMSdq      gap      omega  full diag
   1    -79.2180917 -0.792181E+02  0.206E+00    0.12       0.0  T
   2    -79.2913476 -0.732559E-01  0.161E+00    1.79       1.0  T
   3    -79.3800122 -0.886646E-01  0.710E-01    0.80       1.0  T
   4    -79.3858695 -0.585731E-02  0.553E-01    0.56       1.0  T
   5    -79.3887375 -0.286800E-02  0.400E-01    0.44       1.0  T
   6    -79.3912314 -0.249389E-02  0.117E-01    0.21       1.0  T
   7    -79.3906787  0.552706E-03  0.138E-01    0.13       1.0  T
   8    -79.3913997 -0.720968E-03  0.307E-02    0.19       1.0  T
   9    -79.3914068 -0.710206E-05  0.208E-02    0.19       1.0  T
  10    -79.3914177 -0.109562E-04  0.814E-03    0.18       1.8  T
  11    -79.3914194 -0.163801E-05  0.434E-03    0.18       3.3  T
  12    -79.3914198 -0.463881E-06  0.122E-03    0.18      11.8  T
  13    -79.3914199 -0.239611E-07  0.667E-04    0.18      21.4  T
  14    -79.3914199 -0.799503E-08  0.225E-04    0.18      63.5  T
     SCC iter.                  ...        0 min,  0.300 sec
     gradient                   ...        0 min,  0.058 sec
 * total energy  :   -78.5680720 Eh     change       -0.2022437E+00 Eh
   gradient norm :     0.3271543 Eh/α   predicted    -0.1899325E+00 (  -6.09%)
   displ. norm   :     0.7969047 α      lambda       -0.1881477E+00
   maximum displ.:     0.3742844 α      in ANC's #77, #47, #54, ...

........................................................................
.............................. CYCLE    8 ..............................
........................................................................

 iter      E             dE          RMSdq      gap      omega  full diag
   1    -79.5114253 -0.795114E+02  0.843E-01    0.16       0.0  T
   2    -79.5203200 -0.889464E-02  0.518E-01    0.29       1.0  T
   3    -79.5266769 -0.635694E-02  0.295E-01    0.32       1.0  T
   4    -79.5283199 -0.164303E-02  0.123E-01    0.28       1.0  T
   5    -79.5285649 -0.244999E-03  0.391E-02    0.29       1.0  T
   6    -79.5285797 -0.147054E-04  0.204E-02    0.29       1.0  T
   7    -79.5285817 -0.205728E-05  0.834E-03    0.29       1.7  T
   8    -79.5285820 -0.331936E-06  0.292E-03    0.29       4.9  T
   9    -79.5285822 -0.150009E-06  0.144E-03    0.29       9.9  T
  10    -79.5285822 -0.186265E-07  0.859E-04    0.29      16.6  T
  11    -79.5285822 -0.114380E-07  0.351E-04    0.29      40.7  T
     SCC iter.                  ...        0 min,  0.393 sec
     gradient                   ...        0 min,  0.124 sec
 * total energy  :   -78.7329966 Eh     change       -0.1649246E+00 Eh
   gradient norm :     0.2761148 Eh/α   predicted    -0.1538162E+00 (  -6.74%)
   displ. norm   :     0.8285856 α      lambda       -0.1629706E+00
   maximum displ.:     0.3573077 α      in ANC's #77, #47, #54, ...

........................................................................
.............................. CYCLE    9 ..............................
........................................................................

 iter      E             dE          RMSdq      gap      omega  full diag
   1    -79.6568094 -0.796568E+02  0.731E-01    0.79       0.0  T
   2    -79.6615990 -0.478962E-02  0.495E-01    0.76       1.0  T
   3    -79.6671140 -0.551501E-02  0.261E-01    0.83       1.0  T
   4    -79.6680253 -0.911240E-03  0.993E-02    0.85       1.0  T
   5    -79.6681139 -0.886374E-04  0.411E-02    0.85       1.0  T
   6    -79.6681251 -0.112314E-04  0.221E-02    0.85       1.0  T
   7    -79.6681299 -0.473356E-05  0.122E-02    0.85       1.2  T
   8    -79.6681315 -0.162124E-05  0.335E-03    0.85       4.3  T
   9    -79.6681316 -0.128005E-06  0.180E-03    0.85       8.0  T
  10    -79.6681316 -0.199114E-07  0.839E-04    0.85      17.0  T
  11    -79.6681316 -0.922179E-08  0.353E-04    0.85      40.4  T
     SCC iter.                  ...        0 min,  0.725 sec
     gradient                   ...        0 min,  0.105 sec
 * total energy  :   -78.8788291 Eh     change       -0.1458324E+00 Eh
   gradient norm :     0.2489564 Eh/α   predicted    -0.1374295E+00 (  -5.76%)
   displ. norm   :     0.8470347 α      lambda       -0.1473876E+00
   maximum displ.:     0.3153810 α      in ANC's #77, #47, #54, ...

........................................................................
.............................. CYCLE   10 ..............................
........................................................................

 iter      E             dE          RMSdq      gap      omega  full diag
   1    -79.8006443 -0.798006E+02  0.626E-01    1.18       0.0  T
   2    -79.8029653 -0.232102E-02  0.473E-01    1.13       1.0  T
   3    -79.8083550 -0.538967E-02  0.232E-01    1.16       1.0  T
   4    -79.8086901 -0.335095E-03  0.770E-02    1.18       1.0  T
   5    -79.8087388 -0.487155E-04  0.389E-02    1.19       1.0  T
   6    -79.8087487 -0.996878E-05  0.234E-02    1.18       1.0  T
   7    -79.8087551 -0.638571E-05  0.829E-03    1.19       1.7  T
   8    -79.8087557 -0.537131E-06  0.246E-03    1.19       5.8  T
   9    -79.8087557 -0.491076E-07  0.142E-03    1.19      10.1  T
  10    -79.8087557 -0.754784E-08  0.729E-04    1.19      19.6  T
  11    -79.8087557 -0.681622E-08  0.293E-04    1.19      48.8  T
     SCC iter.                  ...        0 min,  0.947 sec
     gradient                   ...        0 min,  0.094 sec
 * total energy  :   -79.0085745 Eh     change       -0.1297454E+00 Eh
   gradient norm :     0.2220562 Eh/α   predicted    -0.1265668E+00 (  -2.45%)
   displ. norm   :     0.8145194 α      lambda       -0.1221300E+00
   maximum displ.:     0.2950813 α      in ANC's #47, #54, #77, ...

........................................................................
.............................. CYCLE   11 ..............................
........................................................................

 iter      E             dE          RMSdq      gap      omega  full diag
   1    -79.9224225 -0.799224E+02  0.525E-01    1.12       0.0  T
   2    -79.9241849 -0.176235E-02  0.347E-01    1.08       1.0  T
   3    -79.9263915 -0.220660E-02  0.205E-01    1.11       1.0  T
   4    -79.9267951 -0.403585E-03  0.603E-02    1.09       1.0  T
   5    -79.9268472 -0.521529E-04  0.329E-02    1.12       1.0  T
   6    -79.9268612 -0.139691E-04  0.177E-02    1.11       1.0  T
   7    -79.9268624 -0.121612E-05  0.664E-03    1.11       2.2  T
   8    -79.9268628 -0.415891E-06  0.196E-03    1.11       7.3  T
   9    -79.9268629 -0.514212E-07  0.930E-04    1.11      15.4  T
  10    -79.9268629 -0.741848E-08  0.517E-04    1.11      27.6  T
     SCC iter.                  ...        0 min,  1.824 sec
     gradient                   ...        0 min,  0.105 sec
 * total energy  :   -79.1135995 Eh     change       -0.1050250E+00 Eh
   gradient norm :     0.1894683 Eh/α   predicted    -0.1015781E+00 (  -3.28%)
   displ. norm   :     0.7763060 α      lambda       -0.9680812E-01
   maximum displ.:     0.2643794 α      in ANC's #47, #54, #34, ...

........................................................................
.............................. CYCLE   12 ..............................
........................................................................

 iter      E             dE          RMSdq      gap      omega  full diag
   1    -80.0089223 -0.800089E+02  0.475E-01    0.98       0.0  T
   2    -80.0102508 -0.132851E-02  0.272E-01    0.96       1.0  T
   3    -80.0104906 -0.239779E-03  0.194E-01    0.99       1.0  T
   4    -80.0110478 -0.557182E-03  0.519E-02    0.96       1.0  T
   5    -80.0110842 -0.364450E-04  0.289E-02    0.98       1.0  T
   6    -80.0110955 -0.113312E-04  0.143E-02    0.97       1.0  T
   7    -80.0110968 -0.125653E-05  0.600E-03    0.97       2.4  T
   8    -80.0110972 -0.389744E-06  0.171E-03    0.97       8.4  T
   9    -80.0110972 -0.327844E-07  0.876E-04    0.97      16.3  T
  10    -80.0110972 -0.394691E-08  0.445E-04    0.97      32.1  T
     SCC iter.                  ...        0 min,  0.302 sec
     gradient                   ...        0 min,  0.108 sec
 * total energy  :   -79.1951936 Eh     change       -0.8159414E-01 Eh
   gradient norm :     0.1626094 Eh/α   predicted    -0.7757488E-01 (  -4.93%)
   displ. norm   :     0.7604322 α      lambda       -0.7678876E-01
   maximum displ.:     0.2491262 α      in ANC's #34, #80, #47, ...

........................................................................
.............................. CYCLE   13 ..............................
........................................................................

 iter      E             dE          RMSdq      gap      omega  full diag
   1    -80.0777852 -0.800778E+02  0.462E-01    0.94       0.0  T
   2    -80.0786433 -0.858102E-03  0.268E-01    0.85       1.0  T
   3    -80.0789000 -0.256690E-03  0.191E-01    0.92       1.0  T
   4    -80.0794841 -0.584039E-03  0.461E-02    0.87       1.0  T
   5    -80.0795047 -0.206344E-04  0.254E-02    0.89       1.0  T
   6    -80.0795116 -0.691462E-05  0.122E-02    0.88       1.2  T
   7    -80.0795126 -0.928124E-06  0.517E-03    0.88       2.8  T
   8    -80.0795129 -0.332170E-06  0.168E-03    0.88       8.5  T
   9    -80.0795129 -0.263220E-07  0.990E-04    0.88      14.4  T
  10    -80.0795129 -0.528634E-08  0.318E-04    0.88      44.9  T
     SCC iter.                  ...        0 min,  0.375 sec
     gradient                   ...        0 min,  0.107 sec
 * total energy  :   -79.2590188 Eh     change       -0.6382513E-01 Eh
   gradient norm :     0.1389151 Eh/α   predicted    -0.6059620E-01 (  -5.06%)
   displ. norm   :     0.7502005 α      lambda       -0.6169932E-01
   maximum displ.:     0.2812397 α      in ANC's #34, #80, #75, ...

........................................................................
.............................. CYCLE   14 ..............................
........................................................................

 iter      E             dE          RMSdq      gap      omega  full diag
   1    -80.1235556 -0.801236E+02  0.419E-01    0.94       0.0  T
   2    -80.1241334 -0.577724E-03  0.238E-01    0.89       1.0  T
   3    -80.1239770  0.156323E-03  0.123E-01    0.94       1.0  T
   4    -80.1242115 -0.234473E-03  0.472E-02    0.89       1.0  T
   5    -80.1242469 -0.354022E-04  0.241E-02    0.91       1.0  T
   6    -80.1242529 -0.601101E-05  0.103E-02    0.91       1.4  T
   7    -80.1242533 -0.392175E-06  0.373E-03    0.91       3.8  T
   8    -80.1242536 -0.280602E-06  0.151E-03    0.91       9.5  T
   9    -80.1242536 -0.131363E-07  0.937E-04    0.91      15.2  T
  10    -80.1242536 -0.370750E-08  0.222E-04    0.91      64.5  T
     SCC iter.                  ...        0 min,  0.324 sec
     gradient                   ...        0 min,  0.106 sec
 * total energy  :   -79.3076616 Eh     change       -0.4864283E-01 Eh
   gradient norm :     0.1343826 Eh/α   predicted    -0.4821190E-01 (  -0.89%)
   displ. norm   :     0.7379630 α      lambda       -0.4779886E-01
   maximum displ.:     0.2995408 α      in ANC's #34, #18, #39, ...

........................................................................
.............................. CYCLE   15 ..............................
........................................................................

 iter      E             dE          RMSdq      gap      omega  full diag
   1    -80.1605627 -0.801606E+02  0.381E-01    1.04       0.0  T
   2    -80.1612359 -0.673227E-03  0.226E-01    0.91       1.0  T
   3    -80.1615280 -0.292017E-03  0.152E-01    0.99       1.0  T
   4    -80.1618444 -0.316457E-03  0.402E-02    0.94       1.0  T
   5    -80.1618607 -0.162403E-04  0.216E-02    0.95       1.0  T
   6    -80.1618657 -0.504230E-05  0.997E-03    0.95       1.4  T
   7    -80.1618660 -0.288050E-06  0.321E-03    0.95       4.5  T
   8    -80.1618662 -0.191099E-06  0.168E-03    0.95       8.5  T
   9    -80.1618662 -0.211661E-07  0.110E-03    0.95      13.0  T
  10    -80.1618662 -0.937040E-08  0.359E-04    0.95      39.8  T
  11    -80.1618662 -0.109489E-08  0.137E-04    0.95     104.5  T
     SCC iter.                  ...        0 min,  0.160 sec
     gradient                   ...        0 min,  0.093 sec
 * total energy  :   -79.3446711 Eh     change       -0.3700952E-01 Eh
   gradient norm :     0.1147528 Eh/α   predicted    -0.3691482E-01 (  -0.26%)
   displ. norm   :     0.6733615 α      lambda       -0.3298440E-01
   maximum displ.:     0.2872055 α      in ANC's #34, #18, #80, ...

........................................................................
.............................. CYCLE   16 ..............................
........................................................................

 iter      E             dE          RMSdq      gap      omega  full diag
   1    -80.1866327 -0.801866E+02  0.256E-01    1.02       0.0  T
   2    -80.1869388 -0.306016E-03  0.153E-01    0.98       1.0  T
   3    -80.1869116  0.271187E-04  0.831E-02    1.02       1.0  T
   4    -80.1870057 -0.940460E-04  0.336E-02    0.99       1.0  T
   5    -80.1870182 -0.125115E-04  0.142E-02    1.00       1.0  T
   6    -80.1870189 -0.669323E-06  0.707E-03    1.00       2.0  T
   7    -80.1870189 -0.111729E-07  0.331E-03    1.00       4.3  T
   8    -80.1870192 -0.313615E-06  0.909E-04    1.00      15.7  T
   9    -80.1870192 -0.395380E-08  0.597E-04    1.00      23.9  T
     SCC iter.                  ...        0 min,  0.136 sec
     gradient                   ...        0 min,  0.108 sec
 * total energy  :   -79.3712391 Eh     change       -0.2656796E-01 Eh
   gradient norm :     0.1204812 Eh/α   predicted    -0.2397006E-01 (  -9.78%)
   displ. norm   :     0.6782191 α      lambda       -0.2771727E-01
   maximum displ.:     0.2977946 α      in ANC's #34, #18, #39, ...

........................................................................
.............................. CYCLE   17 ..............................
........................................................................

 iter      E             dE          RMSdq      gap      omega  full diag
   1    -80.2055299 -0.802055E+02  0.225E-01    1.09       0.0  T
   2    -80.2058860 -0.356112E-03  0.135E-01    1.01       1.0  T
   3    -80.2059415 -0.554188E-04  0.876E-02    1.05       1.0  T
   4    -80.2060257 -0.842493E-04  0.305E-02    1.02       1.0  T
   5    -80.2060354 -0.969793E-05  0.150E-02    1.03       1.0  T
   6    -80.2060394 -0.395231E-05  0.733E-03    1.03       1.9  T
   7    -80.2060395 -0.926890E-07  0.303E-03    1.03       4.7  T
   8    -80.2060396 -0.149810E-06  0.111E-03    1.03      12.8  T
   9    -80.2060396 -0.185436E-07  0.639E-04    1.03      22.4  T
  10    -80.2060396 -0.209820E-08  0.321E-04    1.03      44.5  T
     SCC iter.                  ...        0 min,  0.172 sec
     gradient                   ...        0 min,  0.066 sec
 * total energy  :   -79.3943449 Eh     change       -0.2310581E-01 Eh
   gradient norm :     0.1247241 Eh/α   predicted    -0.2023335E-01 ( -12.43%)
   displ. norm   :     0.6555066 α      lambda       -0.2709904E-01
   maximum displ.:     0.2310483 α      in ANC's #18, #34, #39, ...

........................................................................
.............................. CYCLE   18 ..............................
........................................................................

 iter      E             dE          RMSdq      gap      omega  full diag
   1    -80.2278821 -0.802279E+02  0.243E-01    1.02       0.0  T
   2    -80.2282423 -0.360201E-03  0.152E-01    1.03       1.0  T
   3    -80.2282551 -0.128055E-04  0.872E-02    1.01       1.0  T
   4    -80.2283351 -0.799161E-04  0.309E-02    1.03       1.0  T
   5    -80.2283511 -0.160389E-04  0.150E-02    1.02       1.0  T
   6    -80.2283551 -0.400870E-05  0.659E-03    1.02       2.2  T
   7    -80.2283552 -0.111297E-06  0.224E-03    1.02       6.4  T
   8    -80.2283553 -0.382815E-07  0.960E-04    1.02      14.9  T
   9    -80.2283553 -0.656561E-08  0.651E-04    1.02      22.0  T
     SCC iter.                  ...        0 min,  0.101 sec
     gradient                   ...        0 min,  0.057 sec
 * total energy  :   -79.4155245 Eh     change       -0.2117958E-01 Eh
   gradient norm :     0.1066409 Eh/α   predicted    -0.1937164E-01 (  -8.54%)
   displ. norm   :     0.6359101 α      lambda       -0.2243280E-01
   maximum displ.:     0.2383053 α      in ANC's #34, #41, #43, ...

........................................................................
.............................. CYCLE   19 ..............................
........................................................................

 iter      E             dE          RMSdq      gap      omega  full diag
   1    -80.2270055 -0.802270E+02  0.222E-01    1.04       0.0  T
   2    -80.2273457 -0.340246E-03  0.134E-01    1.02       1.0  T
   3    -80.2273333  0.124633E-04  0.713E-02    1.03       1.0  T
   4    -80.2273823 -0.490335E-04  0.299E-02    1.02       1.0  T
   5    -80.2273990 -0.166986E-04  0.123E-02    1.03       1.2  T
   6    -80.2274015 -0.254211E-05  0.633E-03    1.02       2.3  T
   7    -80.2274017 -0.125782E-06  0.265E-03    1.02       5.4  T
   8    -80.2274017 -0.476913E-07  0.121E-03    1.02      11.8  T
   9    -80.2274017 -0.210374E-07  0.566E-04    1.02      25.2  T
  10    -80.2274017 -0.274795E-08  0.285E-04    1.02      50.1  T
     SCC iter.                  ...        0 min,  0.100 sec
     gradient                   ...        0 min,  0.055 sec
 * total energy  :   -79.4308554 Eh     change       -0.1533093E-01 Eh
   gradient norm :     0.0925989 Eh/α   predicted    -0.1575212E-01 (   2.75%)
   displ. norm   :     0.4957327 α      lambda       -0.1476228E-01
   maximum displ.:     0.1865698 α      in ANC's #18, #41, #31, ...

........................................................................
.............................. CYCLE   20 ..............................
........................................................................

 iter      E             dE          RMSdq      gap      omega  full diag
   1    -80.2416712 -0.802417E+02  0.206E-01    1.00       0.0  T
   2    -80.2417961 -0.124939E-03  0.122E-01    1.04       1.0  T
   3    -80.2417468  0.493202E-04  0.725E-02    1.00       1.0  T
   4    -80.2418356 -0.888558E-04  0.207E-02    1.03       1.0  T
   5    -80.2418456 -0.995659E-05  0.919E-03    1.02       1.6  T
   6    -80.2418461 -0.472115E-06  0.496E-03    1.02       2.9  T
   7    -80.2418463 -0.234103E-06  0.211E-03    1.02       6.8  T
   8    -80.2418463 -0.389437E-07  0.741E-04    1.02      19.3  T
   9    -80.2418464 -0.448637E-08  0.323E-04    1.02      44.2  T
     SCC iter.                  ...        0 min,  0.184 sec
     gradient                   ...        0 min,  0.100 sec
 * total energy  :   -79.4401731 Eh     change       -0.9317685E-02 Eh
   gradient norm :     0.0795447 Eh/α   predicted    -0.9195088E-02 (  -1.32%)
   displ. norm   :     0.4969531 α      lambda       -0.1172564E-01
   maximum displ.:     0.1737100 α      in ANC's #14, #41, #31, ...
 * RMSD in coord.:     1.4623723 α      energy gain  -0.8436614E+01 Eh

generating ANC from exact Hessian ...
Using Lindh-Hessian (1995)
 Shifting diagonal of input Hessian by    1.0603754863615306E-002
 Lowest  eigenvalues of input Hessian
    0.010000    0.010353    0.010418    0.010474    0.010501    0.000000
    0.000000    0.000000    0.000000    0.000000    0.000000    0.010770
    0.010823    0.010834    0.010843    0.011037    0.011280    0.011288
 Highest eigenvalues
    1.883461    1.923869    1.960629    2.109091    2.241599    2.676038


........................................................................
.............................. CYCLE   21 ..............................
........................................................................

 iter      E             dE          RMSdq      gap      omega  full diag
   1    -80.2419354 -0.802419E+02  0.237E-01    0.93       0.0  T
   2    -80.2427494 -0.814011E-03  0.141E-01    1.03       1.0  T
   3    -80.2430104 -0.260980E-03  0.803E-02    0.98       1.0  T
   4    -80.2430328 -0.223823E-04  0.383E-02    1.02       1.0  T
   5    -80.2430596 -0.268109E-04  0.128E-02    1.00       1.1  T
   6    -80.2430630 -0.336258E-05  0.520E-03    1.00       2.7  T
   7    -80.2430630 -0.479301E-07  0.317E-03    1.00       4.5  T
   8    -80.2430631 -0.864623E-07  0.113E-03    1.00      12.7  T
   9    -80.2430631 -0.165153E-07  0.499E-04    1.00      28.6  T
  10    -80.2430631 -0.837829E-09  0.234E-04    1.00      61.1  T
     SCC iter.                  ...        0 min,  0.210 sec
     gradient                   ...        0 min,  0.102 sec
 * total energy  :   -79.4467679 Eh     change       -0.6594779E-02 Eh
   gradient norm :     0.0698008 Eh/α   predicted     0.0000000E+00 (-100.00%)
   displ. norm   :     0.4661879 α      lambda       -0.1529627E-01
   maximum displ.:     0.1779371 α      in ANC's #30, #35, #33, ...

........................................................................
.............................. CYCLE   22 ..............................
........................................................................

 iter      E             dE          RMSdq      gap      omega  full diag
   1    -80.2612906 -0.802613E+02  0.200E-01    1.05       0.0  T
   2    -80.2614584 -0.167815E-03  0.120E-01    1.00       1.0  T
   3    -80.2614788 -0.203839E-04  0.795E-02    1.04       1.0  T
   4    -80.2615627 -0.838491E-04  0.203E-02    1.01       1.0  T
   5    -80.2615723 -0.962677E-05  0.775E-03    1.02       1.8  T
   6    -80.2615732 -0.854380E-06  0.373E-03    1.02       3.8  T
   7    -80.2615732 -0.372211E-07  0.194E-03    1.02       7.4  T
   8    -80.2615732 -0.406161E-07  0.767E-04    1.02      18.6  T
   9    -80.2615732 -0.743604E-08  0.292E-04    1.02      48.9  T
     SCC iter.                  ...        0 min,  0.141 sec
     gradient                   ...        0 min,  0.055 sec
 * total energy  :   -79.4590188 Eh     change       -0.1225091E-01 Eh
   gradient norm :     0.0342847 Eh/α   predicted    -0.9310761E-02 ( -24.00%)
   displ. norm   :     0.6427404 α      lambda       -0.1216176E-01
   maximum displ.:     0.2225885 α      in ANC's #30, #33, #35, ...

........................................................................
.............................. CYCLE   23 ..............................
........................................................................

 iter      E             dE          RMSdq      gap      omega  full diag
   1    -80.2748344 -0.802748E+02  0.217E-01    1.08       0.0  T
   2    -80.2750387 -0.204313E-03  0.131E-01    1.01       1.0  T
   3    -80.2750756 -0.368231E-04  0.877E-02    1.06       1.0  T
   4    -80.2751765 -0.100896E-03  0.232E-02    1.03       1.0  T
   5    -80.2751866 -0.101070E-04  0.974E-03    1.04       1.5  T
   6    -80.2751877 -0.109691E-05  0.473E-03    1.04       3.0  T
   7    -80.2751877 -0.669608E-07  0.219E-03    1.04       6.5  T
   8    -80.2751878 -0.443875E-07  0.917E-04    1.04      15.6  T
   9    -80.2751878 -0.130583E-07  0.407E-04    1.04      35.1  T
     SCC iter.                  ...        0 min,  0.085 sec
     gradient                   ...        0 min,  0.061 sec
 * total energy  :   -79.4681524 Eh     change       -0.9133632E-02 Eh
   gradient norm :     0.0182428 Eh/α   predicted    -0.8593081E-02 (  -5.92%)
   displ. norm   :     0.6401634 α      lambda       -0.6642863E-02
   maximum displ.:     0.2247914 α      in ANC's #33, #30, #28, ...

........................................................................
.............................. CYCLE   24 ..............................
........................................................................

 iter      E             dE          RMSdq      gap      omega  full diag
   1    -80.2790174 -0.802790E+02  0.152E-01    1.06       0.0  T
   2    -80.2790770 -0.596771E-04  0.914E-02    1.03       1.0  T
   3    -80.2790394  0.376052E-04  0.607E-02    1.06       1.0  T
   4    -80.2791125 -0.730409E-04  0.143E-02    1.04       1.0  T
   5    -80.2791149 -0.244771E-05  0.701E-03    1.04       2.0  T
   6    -80.2791154 -0.456264E-06  0.328E-03    1.04       4.4  T
   7    -80.2791154 -0.508402E-07  0.110E-03    1.04      13.0  T
   8    -80.2791154 -0.629768E-08  0.461E-04    1.04      31.0  T
   9    -80.2791154 -0.198345E-08  0.287E-04    1.04      49.8  T
     SCC iter.                  ...        0 min,  0.190 sec
     gradient                   ...        0 min,  0.114 sec
 * total energy  :   -79.4735285 Eh     change       -0.5376098E-02 Eh
   gradient norm :     0.0231812 Eh/α   predicted    -0.4682587E-02 ( -12.90%)
   displ. norm   :     0.6789243 α      lambda       -0.5313374E-02
   maximum displ.:     0.2401090 α      in ANC's #14, #33, #30, ...

........................................................................
.............................. CYCLE   25 ..............................
........................................................................

 iter      E             dE          RMSdq      gap      omega  full diag
   1    -80.2820439 -0.802820E+02  0.137E-01    1.04       0.0  T
   2    -80.2820654 -0.214853E-04  0.833E-02    1.04       1.0  T
   3    -80.2820462  0.191677E-04  0.317E-02    1.04       1.0  T
   4    -80.2820695 -0.233466E-04  0.136E-02    1.04       1.1  T
   5    -80.2820710 -0.149715E-05  0.653E-03    1.04       2.2  T
   6    -80.2820711 -0.996969E-07  0.280E-03    1.04       5.1  T
   7    -80.2820713 -0.134257E-06  0.987E-04    1.04      14.5  T
   8    -80.2820713 -0.157152E-07  0.418E-04    1.04      34.2  T
     SCC iter.                  ...        0 min,  0.165 sec
     gradient                   ...        0 min,  0.104 sec
 * total energy  :   -79.4779444 Eh     change       -0.4415894E-02 Eh
   gradient norm :     0.0226435 Eh/α   predicted    -0.3881258E-02 ( -12.11%)
   displ. norm   :     0.6908331 α      lambda       -0.4449747E-02
   maximum displ.:     0.2792885 α      in ANC's #14, #9, #30, ...

........................................................................
.............................. CYCLE   26 ..............................
........................................................................

 iter      E             dE          RMSdq      gap      omega  full diag
   1    -80.2861251 -0.802861E+02  0.136E-01    1.02       0.0  T
   2    -80.2861543 -0.291579E-04  0.853E-02    1.03       1.0  T
   3    -80.2861237  0.305940E-04  0.421E-02    1.01       1.0  T
   4    -80.2861642 -0.405470E-04  0.160E-02    1.03       1.0  T
   5    -80.2861654 -0.111815E-05  0.944E-03    1.02       1.5  T
   6    -80.2861664 -0.104225E-05  0.314E-03    1.03       4.5  T
   7    -80.2861665 -0.598366E-07  0.109E-03    1.03      13.1  T
   8    -80.2861665 -0.209254E-07  0.523E-04    1.03      27.3  T
   9    -80.2861665 -0.271348E-08  0.281E-04    1.03      50.8  T
     SCC iter.                  ...        0 min,  0.185 sec
     gradient                   ...        0 min,  0.057 sec
 * total energy  :   -79.4816224 Eh     change       -0.3677957E-02 Eh
   gradient norm :     0.0176534 Eh/α   predicted    -0.3286698E-02 ( -10.64%)
   displ. norm   :     0.6916352 α      lambda       -0.3390314E-02
   maximum displ.:     0.2993118 α      in ANC's #14, #9, #30, ...

........................................................................
.............................. CYCLE   27 ..............................
........................................................................

 iter      E             dE          RMSdq      gap      omega  full diag
   1    -80.2895472 -0.802895E+02  0.133E-01    1.01       0.0  T
   2    -80.2895792 -0.319576E-04  0.847E-02    1.02       1.0  T
   3    -80.2895425  0.367152E-04  0.485E-02    1.00       1.0  T
   4    -80.2895948 -0.523015E-04  0.169E-02    1.02       1.0  T
   5    -80.2895963 -0.158451E-05  0.980E-03    1.02       1.5  T
   6    -80.2895974 -0.105374E-05  0.318E-03    1.02       4.5  T
   7    -80.2895974 -0.359346E-07  0.969E-04    1.02      14.7  T
   8    -80.2895975 -0.116400E-07  0.553E-04    1.02      25.8  T
     SCC iter.                  ...        0 min,  0.082 sec
     gradient                   ...        0 min,  0.056 sec
 * total energy  :   -79.4843543 Eh     change       -0.2731923E-02 Eh
   gradient norm :     0.0138933 Eh/α   predicted    -0.2506057E-02 (  -8.27%)
   displ. norm   :     0.6689181 α      lambda       -0.2373145E-02
   maximum displ.:     0.3020422 α      in ANC's #9, #14, #12, ...

........................................................................
.............................. CYCLE   28 ..............................
........................................................................

 iter      E             dE          RMSdq      gap      omega  full diag
   1    -80.2911356 -0.802911E+02  0.121E-01    1.01       0.0  T
   2    -80.2911568 -0.211486E-04  0.771E-02    1.02       1.0  T
   3    -80.2911260  0.307533E-04  0.397E-02    1.01       1.0  T
   4    -80.2911657 -0.396431E-04  0.149E-02    1.02       1.0  T
   5    -80.2911667 -0.108259E-05  0.804E-03    1.02       1.8  T
   6    -80.2911675 -0.743797E-06  0.282E-03    1.02       5.1  T
   7    -80.2911675 -0.326919E-07  0.105E-03    1.02      13.6  T
   8    -80.2911675 -0.146977E-07  0.565E-04    1.02      25.3  T
   9    -80.2911675 -0.259708E-08  0.315E-04    1.02      45.3  T
     SCC iter.                  ...        0 min,  0.202 sec
     gradient                   ...        0 min,  0.112 sec
 * total energy  :   -79.4863121 Eh     change       -0.1957812E-02 Eh
   gradient norm :     0.0128414 Eh/α   predicted    -0.1717510E-02 ( -12.27%)
   displ. norm   :     0.6744614 α      lambda       -0.1996739E-02
   maximum displ.:     0.3492798 α      in ANC's #9, #14, #12, ...

........................................................................
.............................. CYCLE   29 ..............................
........................................................................

 iter      E             dE          RMSdq      gap      omega  full diag
   1    -80.2935272 -0.802935E+02  0.111E-01    1.02       0.0  T
   2    -80.2935442 -0.170012E-04  0.706E-02    1.02       1.0  T
   3    -80.2935246  0.195430E-04  0.318E-02    1.01       1.0  T
   4    -80.2935498 -0.251894E-04  0.135E-02    1.02       1.1  T
   5    -80.2935509 -0.108119E-05  0.693E-03    1.02       2.1  T
   6    -80.2935514 -0.481170E-06  0.260E-03    1.02       5.5  T
   7    -80.2935515 -0.610841E-07  0.115E-03    1.02      12.5  T
   8    -80.2935515 -0.168624E-07  0.559E-04    1.02      25.6  T
   9    -80.2935515 -0.243907E-08  0.287E-04    1.02      49.7  T
     SCC iter.                  ...        0 min,  0.133 sec
     gradient                   ...        0 min,  0.100 sec
 * total energy  :   -79.4880198 Eh     change       -0.1707741E-02 Eh
   gradient norm :     0.0117588 Eh/α   predicted    -0.1452544E-02 ( -14.94%)
   displ. norm   :     0.7105041 α      lambda       -0.1938875E-02
   maximum displ.:     0.4135087 α      in ANC's #9, #14, #12, ...

........................................................................
.............................. CYCLE   30 ..............................
........................................................................

 iter      E             dE          RMSdq      gap      omega  full diag
   1    -80.2948183 -0.802948E+02  0.108E-01    1.03       0.0  T
   2    -80.2948345 -0.161966E-04  0.674E-02    1.02       1.0  T
   3    -80.2948247  0.980777E-05  0.246E-02    1.03       1.0  T
   4    -80.2948386 -0.138443E-04  0.112E-02    1.02       1.3  T
   5    -80.2948396 -0.107523E-05  0.544E-03    1.02       2.6  T
   6    -80.2948397 -0.983566E-07  0.211E-03    1.02       6.8  T
   7    -80.2948398 -0.461851E-07  0.109E-03    1.02      13.2  T
   8    -80.2948398 -0.187854E-07  0.456E-04    1.02      31.3  T
   9    -80.2948398 -0.147972E-08  0.232E-04    1.02      61.6  T
     SCC iter.                  ...        0 min,  0.091 sec
     gradient                   ...        0 min,  0.056 sec
 * total energy  :   -79.4897135 Eh     change       -0.1693705E-02 Eh
   gradient norm :     0.0120036 Eh/α   predicted    -0.1458827E-02 ( -13.87%)
   displ. norm   :     0.7290031 α      lambda       -0.1917460E-02
   maximum displ.:     0.4517709 α      in ANC's #9, #12, #14, ...

........................................................................
.............................. CYCLE   31 ..............................
........................................................................

 iter      E             dE          RMSdq      gap      omega  full diag
   1    -80.2982949 -0.802983E+02  0.102E-01    1.03       0.0  T
   2    -80.2983107 -0.158124E-04  0.611E-02    1.02       1.0  T
   3    -80.2983004  0.103753E-04  0.256E-02    1.03       1.0  T
   4    -80.2983150 -0.146164E-04  0.928E-03    1.02       1.5  T
   5    -80.2983160 -0.999566E-06  0.427E-03    1.02       3.3  T
   6    -80.2983162 -0.247686E-06  0.206E-03    1.02       6.9  T
   7    -80.2983163 -0.487028E-07  0.102E-03    1.02      14.0  T
   8    -80.2983163 -0.681257E-08  0.453E-04    1.02      31.6  T
   9    -80.2983163 -0.140605E-08  0.173E-04    1.02      82.5  T
     SCC iter.                  ...        0 min,  0.092 sec
     gradient                   ...        0 min,  0.056 sec
 * total energy  :   -79.4912444 Eh     change       -0.1530914E-02 Eh
   gradient norm :     0.0133348 Eh/α   predicted    -0.1468253E-02 (  -4.09%)
   displ. norm   :     0.6877911 α      lambda       -0.1715572E-02
   maximum displ.:     0.4390704 α      in ANC's #9, #14, #12, ...

........................................................................
.............................. CYCLE   32 ..............................
........................................................................

 iter      E             dE          RMSdq      gap      omega  full diag
   1    -80.2928589 -0.802929E+02  0.104E-01    1.03       0.0  T
   2    -80.2928858 -0.268989E-04  0.632E-02    1.01       1.0  T
   3    -80.2928704  0.154207E-04  0.320E-02    1.03       1.0  T
   4    -80.2928926 -0.222511E-04  0.104E-02    1.01       1.4  T
   5    -80.2928945 -0.182507E-05  0.509E-03    1.02       2.8  T
   6    -80.2928947 -0.248284E-06  0.287E-03    1.02       5.0  T
   7    -80.2928947 -0.821349E-08  0.104E-03    1.02      13.8  T
   8    -80.2928947 -0.162754E-07  0.335E-04    1.02      42.7  T
   9    -80.2928947 -0.290775E-08  0.138E-04    1.02     103.9  T
     SCC iter.                  ...        0 min,  0.091 sec
     gradient                   ...        0 min,  0.080 sec
 * total energy  :   -79.4921631 Eh     change       -0.9186394E-03 Eh
   gradient norm :     0.0230626 Eh/α   predicted    -0.1263574E-02 (  37.55%)
   displ. norm   :     0.4090769 α      lambda       -0.1322540E-02
   maximum displ.:     0.2726874 α      in ANC's #9, #7, #27, ...

........................................................................
.............................. CYCLE   33 ..............................
........................................................................

 iter      E             dE          RMSdq      gap      omega  full diag
   1    -80.2971440 -0.802971E+02  0.758E-02    1.03       0.0  T
   2    -80.2971557 -0.117190E-04  0.444E-02    1.01       1.0  T
   3    -80.2971449  0.107954E-04  0.252E-02    1.02       1.0  T
   4    -80.2971606 -0.156972E-04  0.710E-03    1.01       2.0  T
   5    -80.2971613 -0.635243E-06  0.312E-03    1.02       4.6  T
   6    -80.2971614 -0.110167E-06  0.173E-03    1.02       8.2  T
   7    -80.2971614 -0.502794E-08  0.576E-04    1.02      24.8  T
   8    -80.2971614 -0.282401E-08  0.209E-04    1.02      68.3  T
     SCC iter.                  ...        0 min,  0.107 sec
     gradient                   ...        0 min,  0.110 sec
 * total energy  :   -79.4930851 Eh     change       -0.9220202E-03 Eh
   gradient norm :     0.0112779 Eh/α   predicted    -0.7719342E-03 ( -16.28%)
   displ. norm   :     0.4576067 α      lambda       -0.1412608E-02
   maximum displ.:     0.2641785 α      in ANC's #9, #27, #35, ...

........................................................................
.............................. CYCLE   34 ..............................
........................................................................

 iter      E             dE          RMSdq      gap      omega  full diag
   1    -80.3006483 -0.803006E+02  0.850E-02    1.03       0.0  T
   2    -80.3006661 -0.178525E-04  0.509E-02    1.01       1.0  T
   3    -80.3006550  0.111234E-04  0.322E-02    1.02       1.0  T
   4    -80.3006782 -0.232598E-04  0.800E-03    1.01       1.8  T
   5    -80.3006791 -0.837994E-06  0.356E-03    1.01       4.0  T
   6    -80.3006792 -0.860154E-07  0.200E-03    1.01       7.1  T
   7    -80.3006792 -0.773890E-08  0.724E-04    1.01      19.7  T
   8    -80.3006792 -0.780859E-08  0.284E-04    1.01      50.3  T
     SCC iter.                  ...        0 min,  0.109 sec
     gradient                   ...        0 min,  0.060 sec
 * total energy  :   -79.4942107 Eh     change       -0.1125618E-02 Eh
   gradient norm :     0.0154565 Eh/α   predicted    -0.8542092E-03 ( -24.11%)
   displ. norm   :     0.6381731 α      lambda       -0.1553667E-02
   maximum displ.:     0.3980121 α      in ANC's #9, #27, #35, ...

........................................................................
.............................. CYCLE   35 ..............................
........................................................................

 iter      E             dE          RMSdq      gap      omega  full diag
   1    -80.2973580 -0.802974E+02  0.945E-02    1.01       0.0  T
   2    -80.2973708 -0.128904E-04  0.547E-02    1.00       1.0  T
   3    -80.2973567  0.140939E-04  0.255E-02    1.00       1.0  T
   4    -80.2973754 -0.186637E-04  0.746E-03    1.00       1.9  T
   5    -80.2973759 -0.534462E-06  0.368E-03    1.00       3.9  T
   6    -80.2973761 -0.185001E-06  0.185E-03    1.00       7.7  T
   7    -80.2973762 -0.246938E-07  0.653E-04    1.00      21.9  T
   8    -80.2973762 -0.479905E-08  0.286E-04    1.00      49.9  T
     SCC iter.                  ...        0 min,  0.086 sec
     gradient                   ...        0 min,  0.063 sec
 * total energy  :   -79.4953999 Eh     change       -0.1189218E-02 Eh
   gradient norm :     0.0162415 Eh/α   predicted    -0.1093213E-02 (  -8.07%)
   displ. norm   :     0.5638860 α      lambda       -0.1547997E-02
   maximum displ.:     0.3107004 α      in ANC's #9, #27, #35, ...

........................................................................
.............................. CYCLE   36 ..............................
........................................................................

 iter      E             dE          RMSdq      gap      omega  full diag
   1    -80.3025334 -0.803025E+02  0.106E-01    1.01       0.0  T
   2    -80.3025500 -0.166493E-04  0.642E-02    0.99       1.0  T
   3    -80.3025326  0.174344E-04  0.277E-02    1.01       1.0  T
   4    -80.3025555 -0.228903E-04  0.886E-03    0.99       1.6  T
   5    -80.3025565 -0.106970E-05  0.465E-03    1.00       3.1  T
   6    -80.3025566 -0.855206E-07  0.268E-03    1.00       5.3  T
   7    -80.3025567 -0.573783E-07  0.115E-03    1.00      12.4  T
   8    -80.3025567 -0.122451E-07  0.473E-04    1.00      30.2  T
   9    -80.3025567 -0.171821E-08  0.227E-04    1.00      63.0  T
     SCC iter.                  ...        0 min,  0.075 sec
     gradient                   ...        0 min,  0.056 sec
 * total energy  :   -79.4961482 Eh     change       -0.7482663E-03 Eh
   gradient norm :     0.0236601 Eh/α   predicted    -0.1020107E-02 (  36.33%)
   displ. norm   :     0.4412025 α      lambda       -0.1398864E-02
   maximum displ.:     0.2829711 α      in ANC's #9, #27, #35, ...

........................................................................
.............................. CYCLE   37 ..............................
........................................................................

 iter      E             dE          RMSdq      gap      omega  full diag
   1    -80.3000063 -0.803000E+02  0.873E-02    0.99       0.0  T
   2    -80.3000157 -0.941066E-05  0.494E-02    0.99       1.0  T
   3    -80.3000091  0.657127E-05  0.182E-02    0.98       1.0  T
   4    -80.3000181 -0.894020E-05  0.560E-03    0.99       2.6  T
   5    -80.3000185 -0.385415E-06  0.306E-03    0.98       4.7  T
   6    -80.3000185 -0.756069E-07  0.126E-03    0.99      11.3  T
   7    -80.3000186 -0.216793E-07  0.467E-04    0.99      30.6  T
   8    -80.3000186 -0.184230E-08  0.242E-04    0.99      58.9  T
     SCC iter.                  ...        0 min,  0.157 sec
     gradient                   ...        0 min,  0.078 sec
 * total energy  :   -79.4970756 Eh     change       -0.9273856E-03 Eh
   gradient norm :     0.0161647 Eh/α   predicted    -0.8355835E-03 (  -9.90%)
   displ. norm   :     0.3874023 α      lambda       -0.1271654E-02
   maximum displ.:     0.2089646 α      in ANC's #9, #7, #15, ...

........................................................................
.............................. CYCLE   38 ..............................
........................................................................

 iter      E             dE          RMSdq      gap      omega  full diag
   1    -80.2989215 -0.802989E+02  0.110E-01    0.94       0.0  T
   2    -80.2989412 -0.197080E-04  0.629E-02    0.97       1.0  T
   3    -80.2989212  0.200119E-04  0.447E-02    0.95       1.0  T
   4    -80.2989671 -0.459081E-04  0.636E-03    0.96       2.2  T
   5    -80.2989676 -0.513561E-06  0.348E-03    0.96       4.1  T
   6    -80.2989677 -0.897140E-07  0.192E-03    0.96       7.4  T
   7    -80.2989677 -0.180570E-07  0.865E-04    0.96      16.5  T
   8    -80.2989678 -0.997878E-08  0.324E-04    0.96      44.1  T
     SCC iter.                  ...        0 min,  0.132 sec
     gradient                   ...        0 min,  0.060 sec
 * total energy  :   -79.4980663 Eh     change       -0.9907545E-03 Eh
   gradient norm :     0.0138933 Eh/α   predicted    -0.7312552E-03 ( -26.19%)
   displ. norm   :     0.5856483 α      lambda       -0.1498006E-02
   maximum displ.:     0.3055351 α      in ANC's #9, #7, #27, ...

........................................................................
.............................. CYCLE   39 ..............................
........................................................................

 iter      E             dE          RMSdq      gap      omega  full diag
   1    -80.3015187 -0.803015E+02  0.149E-01    0.94       0.0  T
   2    -80.3015378 -0.191167E-04  0.845E-02    0.94       1.0  T
   3    -80.3014960  0.418227E-04  0.404E-02    0.93       1.0  T
   4    -80.3015482 -0.522522E-04  0.737E-03    0.94       1.9  T
   5    -80.3015487 -0.471578E-06  0.437E-03    0.94       3.3  T
   6    -80.3015488 -0.143456E-06  0.244E-03    0.94       5.9  T
   7    -80.3015489 -0.356797E-07  0.117E-03    0.94      12.2  T
   8    -80.3015489 -0.109070E-07  0.416E-04    0.94      34.4  T
   9    -80.3015489 -0.329470E-08  0.173E-04    0.94      82.5  T
     SCC iter.                  ...        0 min,  0.198 sec
     gradient                   ...        0 min,  0.091 sec
 * total energy  :   -79.4991646 Eh     change       -0.1098277E-02 Eh
   gradient norm :     0.0129673 Eh/α   predicted    -0.1005903E-02 (  -8.41%)
   displ. norm   :     0.6446394 α      lambda       -0.1362210E-02
   maximum displ.:     0.3450951 α      in ANC's #9, #7, #27, ...

........................................................................
.............................. CYCLE   40 ..............................
........................................................................

 iter      E             dE          RMSdq      gap      omega  full diag
   1    -80.2988736 -0.802989E+02  0.160E-01    0.92       0.0  T
   2    -80.2988877 -0.141148E-04  0.916E-02    0.91       1.0  T
   3    -80.2988838  0.389865E-05  0.173E-02    0.91       1.0  T
   4    -80.2988909 -0.707359E-05  0.813E-03    0.91       1.8  T
   5    -80.2988920 -0.106253E-05  0.465E-03    0.91       3.1  T
   6    -80.2988920 -0.561323E-07  0.247E-03    0.91       5.8  T
   7    -80.2988921 -0.623988E-07  0.105E-03    0.91      13.7  T
   8    -80.2988921 -0.133617E-07  0.406E-04    0.91      35.2  T
   9    -80.2988921 -0.124085E-08  0.207E-04    0.91      69.0  T
     SCC iter.                  ...        0 min,  0.109 sec
     gradient                   ...        0 min,  0.055 sec
 * total energy  :   -79.4999216 Eh     change       -0.7569552E-03 Eh
   gradient norm :     0.0264781 Eh/α   predicted    -0.9641511E-03 (  27.37%)
   displ. norm   :     0.5215348 α      lambda       -0.1588050E-02
   maximum displ.:     0.2799411 α      in ANC's #7, #9, #12, ...

........................................................................
.............................. CYCLE   41 ..............................
........................................................................

 iter      E             dE          RMSdq      gap      omega  full diag
   1    -80.3039298 -0.803039E+02  0.115E-01    0.91       0.0  T
   2    -80.3039438 -0.139421E-04  0.661E-02    0.90       1.0  T
   3    -80.3039360  0.774051E-05  0.189E-02    0.90       1.0  T
   4    -80.3039470 -0.109665E-04  0.818E-03    0.89       1.7  T
   5    -80.3039479 -0.910276E-06  0.427E-03    0.90       3.3  T
   6    -80.3039480 -0.943750E-07  0.244E-03    0.89       5.8  T
   7    -80.3039480 -0.421862E-07  0.822E-04    0.90      17.4  T
   8    -80.3039480 -0.804116E-08  0.400E-04    0.89      35.7  T
     SCC iter.                  ...        0 min,  0.168 sec
     gradient                   ...        0 min,  0.060 sec
 * total energy  :   -79.5007911 Eh     change       -0.8695636E-03 Eh
   gradient norm :     0.0238322 Eh/α   predicted    -0.1010000E-02 (  16.15%)
   displ. norm   :     0.4116631 α      lambda       -0.1513797E-02
   maximum displ.:     0.2075190 α      in ANC's #9, #7, #12, ...

........................................................................
.............................. CYCLE   42 ..............................
........................................................................

 iter      E             dE          RMSdq      gap      omega  full diag
   1    -80.3079373 -0.803079E+02  0.972E-02    0.90       0.0  T
   2    -80.3079543 -0.169996E-04  0.593E-02    0.89       1.0  T
   3    -80.3079340  0.203758E-04  0.311E-02    0.89       1.0  T
   4    -80.3079619 -0.279577E-04  0.926E-03    0.89       1.5  T
   5    -80.3079626 -0.665624E-06  0.489E-03    0.89       2.9  T
   6    -80.3079628 -0.199557E-06  0.228E-03    0.89       6.3  T
   7    -80.3079628 -0.403602E-07  0.884E-04    0.89      16.2  T
   8    -80.3079628 -0.977840E-08  0.402E-04    0.89      35.6  T
     SCC iter.                  ...        0 min,  0.146 sec
     gradient                   ...        0 min,  0.061 sec
 * total energy  :   -79.5011131 Eh     change       -0.3219241E-03 Eh
   gradient norm :     0.0338201 Eh/α   predicted    -0.8851682E-03 ( 174.96%)
   displ. norm   :     0.3419110 α      lambda       -0.2224908E-02
   maximum displ.:     0.1723928 α      in ANC's #9, #25, #7, ...
 * RMSD in coord.:     1.2504547 α      energy gain  -0.6093999E-01 Eh

generating ANC from exact Hessian ...
Using Lindh-Hessian (1995)
 Shifting diagonal of input Hessian by    1.0342000449201671E-002
 Lowest  eigenvalues of input Hessian
    0.010000    0.010053    0.010127    0.010214    0.000000    0.000000
    0.000000    0.000000    0.000000    0.000000    0.010443    0.010528
    0.010593    0.010662    0.010758    0.010769    0.010904    0.011065
 Highest eigenvalues
    1.854147    1.869513    1.953221    2.095197    2.184139    2.673707


........................................................................
.............................. CYCLE   43 ..............................
........................................................................

 iter      E             dE          RMSdq      gap      omega  full diag
   1    -80.3028750 -0.803029E+02  0.943E-02    0.90       0.0  T
   2    -80.3028881 -0.130959E-04  0.585E-02    0.89       1.0  T
   3    -80.3028629  0.251855E-04  0.350E-02    0.90       1.0  T
   4    -80.3028972 -0.342936E-04  0.808E-03    0.89       1.8  T
   5    -80.3028976 -0.413331E-06  0.366E-03    0.89       3.9  T
   6    -80.3028977 -0.958515E-07  0.158E-03    0.89       9.0  T
   7    -80.3028977 -0.305444E-07  0.672E-04    0.89      21.3  T
   8    -80.3028977 -0.281130E-08  0.330E-04    0.89      43.3  T
     SCC iter.                  ...        0 min,  0.167 sec
     gradient                   ...        0 min,  0.107 sec
 * total energy  :   -79.5020477 Eh     change       -0.9346058E-03 Eh
   gradient norm :     0.0213997 Eh/α   predicted     0.0000000E+00 (-100.00%)
   displ. norm   :     0.1334227 α      lambda       -0.8960518E-03
   maximum displ.:     0.0517525 α      in ANC's #11, #12, #10, ...

........................................................................
.............................. CYCLE   44 ..............................
........................................................................

 iter      E             dE          RMSdq      gap      omega  full diag
   1    -80.3058021 -0.803058E+02  0.547E-02    0.90       0.0  T
   2    -80.3058044 -0.223370E-05  0.322E-02    0.89       1.0  T
   3    -80.3058016  0.274019E-05  0.111E-02    0.90       1.3  T
   4    -80.3058051 -0.347907E-05  0.375E-03    0.90       3.8  T
   5    -80.3058052 -0.474897E-07  0.189E-03    0.90       7.6  T
   6    -80.3058052 -0.221077E-07  0.640E-04    0.90      22.3  T
   7    -80.3058052 -0.106301E-07  0.248E-04    0.90      57.6  T
     SCC iter.                  ...        0 min,  0.137 sec
     gradient                   ...        0 min,  0.064 sec
 * total energy  :   -79.5027285 Eh     change       -0.6808368E-03 Eh
   gradient norm :     0.0077118 Eh/α   predicted    -0.4560092E-03 ( -33.02%)
   displ. norm   :     0.2572854 α      lambda       -0.7429778E-03
   maximum displ.:     0.1173556 α      in ANC's #11, #12, #10, ...

........................................................................
.............................. CYCLE   45 ..............................
........................................................................

 iter      E             dE          RMSdq      gap      omega  full diag
   1    -80.3080286 -0.803080E+02  0.826E-02    0.90       0.0  T
   2    -80.3080323 -0.367201E-05  0.481E-02    0.90       1.0  T
   3    -80.3080294  0.290590E-05  0.112E-02    0.90       1.3  T
   4    -80.3080331 -0.370078E-05  0.426E-03    0.90       3.4  T
   5    -80.3080332 -0.109281E-06  0.221E-03    0.90       6.5  T
   6    -80.3080332 -0.221973E-07  0.815E-04    0.90      17.5  T
   7    -80.3080332 -0.105275E-07  0.306E-04    0.90      46.7  T
     SCC iter.                  ...        0 min,  0.059 sec
     gradient                   ...        0 min,  0.102 sec
 * total energy  :   -79.5032298 Eh     change       -0.5012648E-03 Eh
   gradient norm :     0.0079039 Eh/α   predicted    -0.3960883E-03 ( -20.98%)
   displ. norm   :     0.2872083 α      lambda       -0.4202145E-03
   maximum displ.:     0.1425599 α      in ANC's #11, #12, #10, ...

........................................................................
.............................. CYCLE   46 ..............................
........................................................................

 iter      E             dE          RMSdq      gap      omega  full diag
   1    -80.3080299 -0.803080E+02  0.674E-02    0.90       0.0  T
   2    -80.3080318 -0.194425E-05  0.393E-02    0.90       1.0  T
   3    -80.3080312  0.658739E-06  0.615E-03    0.90       2.3  T
   4    -80.3080321 -0.930509E-06  0.316E-03    0.90       4.5  T
   5    -80.3080322 -0.753894E-07  0.175E-03    0.90       8.2  T
   6    -80.3080322 -0.130963E-07  0.646E-04    0.90      22.1  T
   7    -80.3080322 -0.777455E-08  0.244E-04    0.90      58.6  T
     SCC iter.                  ...        0 min,  0.174 sec
     gradient                   ...        0 min,  0.105 sec
 * total energy  :   -79.5035751 Eh     change       -0.3453285E-03 Eh
   gradient norm :     0.0098973 Eh/α   predicted    -0.2274393E-03 ( -34.14%)
   displ. norm   :     0.4992172 α      lambda       -0.6293565E-03
   maximum displ.:     0.2440289 α      in ANC's #11, #10, #12, ...

........................................................................
.............................. CYCLE   47 ..............................
........................................................................

 iter      E             dE          RMSdq      gap      omega  full diag
   1    -80.3059194 -0.803059E+02  0.100E-01    0.91       0.0  T
   2    -80.3059233 -0.388867E-05  0.592E-02    0.91       1.0  T
   3    -80.3059229  0.365966E-06  0.804E-03    0.90       1.8  T
   4    -80.3059239 -0.972358E-06  0.492E-03    0.91       2.9  T
   5    -80.3059240 -0.146108E-06  0.258E-03    0.91       5.5  T
   6    -80.3059241 -0.567843E-07  0.723E-04    0.91      19.8  T
   7    -80.3059241 -0.719807E-08  0.359E-04    0.91      39.8  T
     SCC iter.                  ...        0 min,  0.085 sec
     gradient                   ...        0 min,  0.061 sec
 * total energy  :   -79.5039805 Eh     change       -0.4054271E-03 Eh
   gradient norm :     0.0099846 Eh/α   predicted    -0.3931027E-03 (  -3.04%)
[...]
          :                      SETUP                      :
          :.................................................:
          :  # basis functions                 118          :
          :  # atomic orbitals                 118          :
          :  # shells                           72          :
          :  # electrons                       134          :
          :  max. iterations                   250          :
          :  Hamiltonian                  GFN2-xTB          :
          :  restarted?                      false          :
          :  GBSA solvation                   true          :
          :  PC potential                    false          :
          :  electronic temp.          300.0000000     K    :
          :  accuracy                    1.0000000          :
          :  -> integral cutoff          0.2500000E+02      :
          :  -> integral neglect         0.1000000E-07      :
          :  -> SCF convergence          0.1000000E-05 Eh   :
          :  -> wf. convergence          0.1000000E-03 e    :
          :  Broyden damping             0.4000000          :
          :  net charge                          2          :
          :  unpaired electrons                  0          :
          ...................................................

 iter      E             dE          RMSdq      gap      omega  full diag
   1    -80.4241734 -0.804242E+02  0.869E-03    0.87       0.0  T
   2    -80.4241734 -0.283179E-07  0.506E-03    0.87       2.8  T
   3    -80.4241734  0.768252E-08  0.787E-04    0.87      18.2  T
   4    -80.4241735 -0.143476E-07  0.457E-04    0.87      31.2  T

   *** convergence criteria satisfied after 4 iterations ***

         #    Occupation            Energy/Eh            Energy/eV
      -------------------------------------------------------------
         1        2.0000           -0.7478505             -20.3500
       ...           ...                  ...                  ...
        61        2.0000           -0.4274984             -11.6328
        62        2.0000           -0.4229278             -11.5085
        63        2.0000           -0.4164539             -11.3323
        64        2.0000           -0.4013101             -10.9202
        65        2.0000           -0.3896823             -10.6038
        66        2.0000           -0.3870836             -10.5331
        67        2.0000           -0.3047260              -8.2920 (HOMO)
        68                         -0.2725937              -7.4177 (LUMO)
        69                         -0.2248221              -6.1177
        70                         -0.2000530              -5.4437
        71                         -0.1976844              -5.3793
        72                         -0.1381898              -3.7603
       ...                                ...                  ...
       118                          1.2358678              33.6297
      -------------------------------------------------------------
                  HL-Gap            0.0321323 Eh            0.8744 eV
             Fermi-level           -0.2886599 Eh           -7.8548 eV

 SCC (total)                   0 d,  0 h,  0 min,  0.229 sec
 SCC setup                      ...        0 min,  0.008 sec (  3.470%)
 Dispersion                     ...        0 min,  0.008 sec (  3.492%)
 classical contributions        ...        0 min,  0.004 sec (  1.693%)
 integral evaluation            ...        0 min,  0.029 sec ( 12.552%)
 iterations                     ...        0 min,  0.090 sec ( 39.185%)
 molecular gradient             ...        0 min,  0.083 sec ( 36.039%)
 printout                       ...        0 min,  0.008 sec (  3.551%)

         :::::::::::::::::::::::::::::::::::::::::::::::::::::
         ::                     SUMMARY                     ::
         :::::::::::::::::::::::::::::::::::::::::::::::::::::
         :: total energy             -79.616209984630 Eh    ::
         :: total w/o Gsasa/hb       -79.560265133757 Eh    ::
         :: gradient norm              0.000812406524 Eh/a0 ::
         :: HOMO-LUMO gap              0.874364940819 eV    ::
         ::.................................................::
         :: SCC energy               -80.423586713015 Eh    ::
         :: -> isotropic ES            0.723024450919 Eh    ::
         :: -> anisotropic ES         -0.061853485497 Eh    ::
         :: -> anisotropic XC          0.010935352052 Eh    ::
         :: -> dispersion             -0.044428354278 Eh    ::
         :: -> Gsolv                  -0.508548702716 Eh    ::
         ::    -> Gelec               -0.452603851843 Eh    ::
         ::    -> Gsasa                0.000509752035 Eh    ::
         ::    -> Ghb                 -0.057535362606 Eh    ::
         ::    -> Gshift               0.001080759698 Eh    ::
         :: repulsion energy           0.807376728386 Eh    ::
         :: add. restraining           0.000000000000 Eh    ::
         :: total charge               2.000000000000 e     ::
         :::::::::::::::::::::::::::::::::::::::::::::::::::::

           -------------------------------------------------
          |                Property Printout                |
           -------------------------------------------------

    * Orbital Energies and Occupations

         #    Occupation            Energy/Eh            Energy/eV
      -------------------------------------------------------------
         1        2.0000           -0.7478505             -20.3500
       ...           ...                  ...                  ...
        55        2.0000           -0.4612747             -12.5519
        56        2.0000           -0.4608957             -12.5416
        57        2.0000           -0.4574408             -12.4476
        58        2.0000           -0.4469894             -12.1632
        59        2.0000           -0.4408841             -11.9971
        60        2.0000           -0.4343681             -11.8198
        61        2.0000           -0.4274984             -11.6328
        62        2.0000           -0.4229278             -11.5085
        63        2.0000           -0.4164539             -11.3323
        64        2.0000           -0.4013101             -10.9202
        65        2.0000           -0.3896823             -10.6038
        66        2.0000           -0.3870836             -10.5331
        67        2.0000           -0.3047260              -8.2920 (HOMO)
        68                         -0.2725937              -7.4177 (LUMO)
        69                         -0.2248221              -6.1177
        70                         -0.2000530              -5.4437
        71                         -0.1976844              -5.3793
        72                         -0.1381898              -3.7603
        73                         -0.0590385              -1.6065
        74                         -0.0441558              -1.2015
        75                         -0.0023477              -0.0639
        76                          0.0282976               0.7700
        77                          0.0299680               0.8155
        78                          0.0539878               1.4691
       ...                                ...                  ...
       118                          1.2358678              33.6297
      -------------------------------------------------------------
                  HL-Gap            0.0321323 Eh            0.8744 eV
             Fermi-level           -0.2886599 Eh           -7.8548 eV

     #   Z          covCN         q      C6AA      α(0)
     1   6 C        2.967    -0.099    30.487     9.057
     2   6 C        2.910    -0.036    28.894     8.814
     3   6 C        2.914    -0.070    29.735     8.942
     4   6 C        2.956    -0.043    29.072     8.844
     5   6 C        2.855     0.092    25.945     8.349
     6   6 C        2.914    -0.063    29.559     8.915
     7   1 H        0.926    -0.002     3.089     2.748
     8   1 H        0.926     0.020     2.739     2.588
     9   1 H        0.924     0.059     2.215     2.328
    10   1 H        0.926     0.030     2.580     2.512
    11   6 C        2.720     0.306    21.797     7.643
    12   8 O        0.856    -0.624    26.723     6.931
    13   8 O        1.703    -0.364    20.157     6.062
    14   6 C        3.691     0.093    19.208     6.272
    15   6 C        3.750    -0.116    22.781     6.807
    16   1 H        0.924     0.040     2.451     2.448
    17   1 H        0.924     0.031     2.579     2.512
    18   1 H        0.925     0.050     2.315     2.379
    19   1 H        0.925     0.052     2.295     2.369
    20   1 H        0.925     0.045     2.386     2.415
    21   6 C        1.862     0.183    26.772     8.358
    22   8 O        1.329    -0.236    18.316     5.757
    23   8 O        1.700    -0.277    18.600     5.823
    24   6 C        3.635    -0.017    21.277     6.638
    25   6 C        3.630    -0.013    21.218     6.633
    26   1 H        0.924     0.040     2.448     2.447
    27   1 H        0.800     0.452     0.401     0.994
    28   1 H        0.925     0.094     1.838     2.120
    29   1 H        0.924     0.055     2.262     2.352
    30   1 H        0.924     0.055     2.259     2.351
    31  48 Cd       3.940     0.421   191.623    26.571
    32   8 O        2.296    -0.357    19.978     6.037
    33   1 H        0.804     0.385     0.514     1.126
    34   1 H        0.925     0.130     1.538     1.939
    35   8 O        2.303    -0.513    23.112     6.493
    36   1 H        0.805     0.410     0.466     1.072
    37   1 H        0.806     0.407     0.471     1.078
    38   8 O        2.132    -0.536    23.612     6.563
    39   1 H        0.805     0.381     0.521     1.134
    40   1 H        0.804     0.405     0.475     1.083
    41   8 O        2.230    -0.545    23.833     6.593
    42   1 H        0.805     0.394     0.495     1.105
    43   1 H        0.805     0.388     0.508     1.119
    44   8 O        2.316    -0.523    23.343     6.525
    45   1 H        0.805     0.403     0.480     1.088
    46   1 H        0.804     0.414     0.460     1.065
    47   8 O        2.660    -0.395    20.702     6.145
    48   1 H        0.801     0.500     0.337     0.913
    49   1 H        0.803     0.496     0.342     0.919

 Mol. C6AA /au·bohr⁶  :      22421.192429
 Mol. C8AA /au·bohr⁸  :     587948.355745
 Mol. α(0) /au        :        230.973278


Wiberg/Mayer (AO) data.
largest (>0.10) Wiberg bond orders for each atom

 ---------------------------------------------------------------------------
     #   Z sym  total        # sym  WBO       # sym  WBO       # sym  WBO
 ---------------------------------------------------------------------------
     1   6 C    3.931 --    11 C    1.238     2 C    1.216     6 C    1.191
     2   6 C    3.990 --     3 C    1.667     1 C    1.216     7 H    0.963
     3   6 C    3.966 --     2 C    1.667     4 C    1.066     8 H    0.971
     4   6 C    3.957 --    21 C    1.617     3 C    1.066     5 C    1.032
                            22 O    0.155
     5   6 C    3.917 --     6 C    1.631     4 C    1.032    23 O    0.984
     6   6 C    3.987 --     5 C    1.631     1 C    1.191    10 H    0.956
     7   1 H    0.997 --     2 C    0.963
     8   1 H    0.999 --     3 C    0.971
     9   1 H    0.996 --    24 C    0.978
    10   1 H    0.996 --     6 C    0.956
    11   6 C    3.843 --    12 O    1.492     1 C    1.238    13 O    0.992
    12   8 O    1.785 --    11 C    1.492    13 O    0.104
    13   8 O    2.158 --    11 C    0.992    14 C    0.965    12 O    0.104
    14   6 C    3.946 --    15 C    1.011    16 H    0.972    17 H    0.969
                            13 O    0.965
    15   6 C    3.993 --    14 C    1.011    20 H    0.987    19 H    0.987
                            18 H    0.985
    16   1 H    0.998 --    14 C    0.972
    17   1 H    0.999 --    14 C    0.969
    18   1 H    0.997 --    15 C    0.985
    19   1 H    0.997 --    15 C    0.987
    20   1 H    0.998 --    15 C    0.987
    21   6 C    3.730 --    22 O    1.826     4 C    1.617
    22   8 O    2.344 --    21 C    1.826    31 Cd   0.206     4 C    0.155
    23   8 O    2.217 --     5 C    0.984    24 C    0.965
    24   6 C    3.922 --    26 H    0.982     9 H    0.978    23 O    0.965
                            34 H    0.963
    25   6 C    3.938 --    32 O    0.985    30 H    0.980    29 H    0.978
                            28 H    0.968
    26   1 H    0.998 --    24 C    0.982
    27   1 H    0.796 --    47 O    0.736
    28   1 H    0.991 --    25 C    0.968
    29   1 H    0.997 --    25 C    0.978
    30   1 H    0.996 --    25 C    0.980
    31  48 Cd   2.197 --    35 O    0.387    44 O    0.376    41 O    0.309
                            32 O    0.290    38 O    0.279    22 O    0.206
                            47 O    0.174
    32   8 O    2.231 --    25 C    0.985    33 H    0.803    31 Cd   0.290
    33   1 H    0.852 --    32 O    0.803
    34   1 H    0.983 --    24 C    0.963
    35   8 O    2.169 --    37 H    0.821    36 H    0.820    31 Cd   0.387
    36   1 H    0.831 --    35 O    0.820
    37   1 H    0.834 --    35 O    0.821
    38   8 O    2.121 --    39 H    0.842    40 H    0.823    31 Cd   0.279
    39   1 H    0.855 --    38 O    0.842
    40   1 H    0.836 --    38 O    0.823
    41   8 O    2.090 --    43 H    0.837    42 H    0.835    31 Cd   0.309
    42   1 H    0.845 --    41 O    0.835
    43   1 H    0.849 --    41 O    0.837
    44   8 O    2.146 --    45 H    0.827    46 H    0.816    31 Cd   0.376
    45   1 H    0.838 --    44 O    0.827
    46   1 H    0.828 --    44 O    0.816
    47   8 O    2.432 --    49 H    0.747    27 H    0.736    48 H    0.680
                            31 Cd   0.174
    48   1 H    0.750 --    47 O    0.680
    49   1 H    0.754 --    47 O    0.747
 ---------------------------------------------------------------------------

Topologies differ in total number of bonds
Writing topology from bond orders to xtbtopo.mol

molecular dipole:
                 x           y           z       tot (Debye)
 q only:      -31.011     -10.939      -2.154
   full:      -30.145     -10.470      -1.565      81.208
molecular quadrupole (traceless):
                xx          xy          yy          xz          yz          zz
 q only:      302.361     156.641    -127.667      43.177       9.016    -174.694
  q+dip:      299.547     155.807    -125.154      30.972       5.655    -174.393
   full:      297.908     154.606    -124.360      32.764       5.429    -173.548

           -------------------------------------------------
          |                Geometry Summary                 |
           -------------------------------------------------

      molecular mass/u    :      442.7408973
   center of mass at/Å    :       -3.2078545      -0.8942162       0.0632271
  moments of inertia/u·Å² :        0.9386559E+03   0.6747212E+04   0.6946613E+04
rotational constants/cm⁻¹ :        0.1795933E-01   0.2498459E-02   0.2426741E-02

 * 42 selected distances

     #   Z          #   Z                                           value/Å
     1   6 C        2   6 C                                       1.4212760
     2   6 C        3   6 C                                       1.3484649
     1   6 C        6   6 C                                       1.4266989
     5   6 C        6   6 C                                       1.3442480
     2   6 C        7   1 H                                       1.0805387
     3   6 C        8   1 H                                       1.0784718
     6   6 C       10   1 H                                       1.0792301
     1   6 C       11   6 C                                       1.4066404
    11   6 C       13   8 O                                       1.3875753
    13   8 O       14   6 C                                       1.4182149
    14   6 C       15   6 C                                       1.5242830
    14   6 C       16   1 H                                       1.0929391
    14   6 C       17   1 H                                       1.0972992
    15   6 C       18   1 H                                       1.0855606
    15   6 C       19   1 H                                       1.0872254
    15   6 C       20   1 H                                       1.0881239
     4   6 C       21   6 C                                       1.3137307
Note: The following floating-point exceptions are signalling: IEEE_UNDERFLOW_FLAG IEEE_DENORMAL
normal termination of xtb
    21   6 C       22   8 O                                       1.2005592
     9   1 H       24   6 C                                       1.0909137
    23   8 O       24   6 C                                       1.4284097
    24   6 C       26   1 H                                       1.0908427
    25   6 C       28   1 H                                       1.0872078
    25   6 C       29   1 H                                       1.0917519
    25   6 C       30   1 H                                       1.0923997
    25   6 C       32   8 O                                       1.4264537
    31  48 Cd      32   8 O                                       2.2221967
    32   8 O       33   1 H                                       0.9762498
    24   6 C       34   1 H                                       1.0875688
    31  48 Cd      35   8 O                                       2.1330741
    35   8 O       36   1 H                                       0.9678980
    35   8 O       37   1 H                                       0.9684432
    38   8 O       39   1 H                                       0.9662121
    38   8 O       40   1 H                                       0.9682528
    31  48 Cd      41   8 O                                       2.2548979 (max)
    41   8 O       42   1 H                                       0.9679416
    41   8 O       43   1 H                                       0.9656043 (min)
    31  48 Cd      44   8 O                                       2.0985706
    44   8 O       45   1 H                                       0.9677313
    44   8 O       46   1 H                                       0.9691773
    27   1 H       47   8 O                                       0.9955358
    47   8 O       48   1 H                                       1.0074495
    47   8 O       49   1 H                                       0.9817279

 * 5 distinct bonds (by element types)

   Z      Z             #   av. dist./Å        max./Å        min./Å
   1 H    6 C          14     1.0878624     1.0972992     1.0784718
   6 C    6 C           7     1.3979060     1.5242830     1.3137307
   1 H    8 O          12     0.9751853     1.0074495     0.9656043
   6 C    8 O           5     1.3722426     1.4284097     1.2005592
   8 O   48 Cd          4     2.1771848     2.2548979     2.0985706


optimized geometry written to: xtbopt.xyz


           -------------------------------------------------
          | TOTAL ENERGY              -79.616209984630 Eh   |
          | GRADIENT NORM               0.000812406524 Eh/α |
          | HOMO-LUMO GAP               0.874364940819 eV   |
           -------------------------------------------------

------------------------------------------------------------------------
 * finished run on 2026/05/26 at 02:22:10.076     
------------------------------------------------------------------------
 total:
 * wall-time:     0 d,  0 h,  1 min, 22.283 sec
 *  cpu-time:     0 d,  0 h,  2 min, 15.807 sec
 * ratio c/w:     1.650 speedup
 SCF:
 * wall-time:     0 d,  0 h,  0 min,  0.611 sec
 *  cpu-time:     0 d,  0 h,  0 min,  1.160 sec
 * ratio c/w:     1.900 speedup
 ANC optimizer:
 * wall-time:     0 d,  0 h,  1 min, 21.608 sec
 *  cpu-time:     0 d,  0 h,  2 min, 14.521 sec
 * ratio c/w:     1.648 speedup

