      -----------------------------------------------------------      
     |                   =====================                   |     
     |                           x T B                           |     
     |                   =====================                   |     
     |                         S. Grimme                         |     
     |          Mulliken Center for Theoretical Chemistry        |     
     |                    University of Bonn                     |     
      -----------------------------------------------------------      

   * xtb version 6.7.1 (edcfbbe) compiled by 'conda@c0858423619e' on 2025-09-04

   xtb is free software: you can redistribute it and/or modify it under
   the terms of the GNU Lesser General Public License as published by
   the Free Software Foundation, either version 3 of the License, or
   (at your option) any later version.
   
   xtb is distributed in the hope that it will be useful,
   but WITHOUT ANY WARRANTY; without even the implied warranty of
   MERCHANTABILITY or FITNESS FOR A PARTICULAR PURPOSE.  See the
   GNU Lesser General Public License for more details.
   
   Cite this work as:
   * C. Bannwarth, E. Caldeweyher, S. Ehlert, A. Hansen, P. Pracht,
     J. Seibert, S. Spicher, S. Grimme, WIREs Comput. Mol. Sci., 2020, 11,
     e01493. DOI: 10.1002/wcms.1493
   
   for GFN2-xTB:
   * C. Bannwarth, S. Ehlert and S. Grimme., J. Chem. Theory Comput., 2019,
     15, 1652-1671. DOI: 10.1021/acs.jctc.8b01176
   for GFN1-xTB:
   * S. Grimme, C. Bannwarth, P. Shushkov, J. Chem. Theory Comput., 2017,
     13, 1989-2009. DOI: 10.1021/acs.jctc.7b00118
   for GFN0-xTB:
   * P. Pracht, E. Caldeweyher, S. Ehlert, S. Grimme, ChemRxiv, 2019, preprint.
     DOI: 10.26434/chemrxiv.8326202.v1
   for GFN-FF:
   * S. Spicher and S. Grimme, Angew. Chem. Int. Ed., 2020, 59, 15665-15673.
     DOI: 10.1002/anie.202004239
   
   for ALPB and GBSA implicit solvation:
   * S. Ehlert, M. Stahn, S. Spicher, S. Grimme, J. Chem. Theory Comput.,
     2021, 17, 4250-4261. DOI: 10.1021/acs.jctc.1c00471
   
   for ddCOSMO and CPCM-X implicit solvation:
   * M. Stahn, S. Ehlert, S. Grimme, J. Phys. Chem. A,
     2023, XX, XXXX-XXXX. DOI: 10.1021/acs.jpca.3c04382
   
   for DFT-D4:
   * E. Caldeweyher, C. Bannwarth and S. Grimme, J. Chem. Phys., 2017,
     147, 034112. DOI: 10.1063/1.4993215
   * E. Caldeweyher, S. Ehlert, A. Hansen, H. Neugebauer, S. Spicher,
     C. Bannwarth and S. Grimme, J. Chem. Phys., 2019, 150, 154122.
     DOI: 10.1063/1.5090222
   * E. Caldeweyher, J.-M. Mewes, S. Ehlert and S. Grimme, Phys. Chem. Chem. Phys.
     2020, 22, 8499-8512. DOI: 10.1039/D0CP00502A
   
   for sTDA-xTB:
   * S. Grimme and C. Bannwarth, J. Chem. Phys., 2016, 145, 054103.
     DOI: 10.1063/1.4959605
   
   in the mass-spec context:
   * V. Asgeirsson, C. Bauer and S. Grimme, Chem. Sci., 2017, 8, 4879.
     DOI: 10.1039/c7sc00601b
   * J. Koopman and S. Grimme, ACS Omega 2019, 4, 12, 15120-15133.
     DOI: 10.1021/acsomega.9b02011
   
   for metadynamics refer to:
   * S. Grimme, J. Chem. Theory Comput., 2019, 155, 2847-2862
     DOI: 10.1021/acs.jctc.9b00143
   
   for SPH calculations refer to:
   * S. Spicher and S. Grimme, J. Chem. Theory Comput., 2021, 17, 1701-1714
     DOI: 10.1021/acs.jctc.0c01306
   
   for ONIOM refer to:
   * C. Plett, A. Katbashev, S. Ehlert, S. Grimme, M. Bursch,
     Phys. Chem. Chem. Phys., 2023, 25, 17860-17868. DOI: 10.1039/D3CP02178E
   
   for DIPRO refer to:
   * J. Kohn, N. Gildemeister, S. Grimme, D. Fazzi, A. Hansen,
     J. Chem. Phys., 2023, just accepted.
   
   for PTB refer to:
   * S. Grimme, M. Mueller, A. Hansen, J. Chem. Phys., 2023, 158, 124111.
     DOI: 10.1063/5.0137838
   
   with help from (in alphabetical order)
   P. Atkinson, C. Bannwarth, F. Bohle, G. Brandenburg, E. Caldeweyher
   M. Checinski, S. Dohm, S. Ehlert, S. Ehrlich, I. Gerasimov, C. Hölzer
   A. Katbashev, J. Kohn, J. Koopman, C. Lavigne, S. Lehtola, F. März, M. Müller,
   F. Musil, H. Neugebauer, J. Pisarek, C. Plett, P. Pracht, F. Pultar,
   J. Seibert, P. Shushkov, S. Spicher, M. Stahn, M. Steiner, T. Strunk,
   J. Stückrath, T. Rose, and J. Unsleber
   
 * started run on 2026/05/26 at 02:17:43.803     
   ID    Z sym.   atoms
    1    6 C      1-6, 11, 14, 15, 21, 24, 25
    2    1 H      7-10, 16-20, 26-30, 33, 34, 36, 37, 39, 40, 42, 43, 45, 46,
                  48, 49
    3    8 O      12, 13, 22, 23, 32, 35, 38, 41, 44, 47
    4   48 Cd     31

           -------------------------------------------------
          |                Calculation Setup                |
           -------------------------------------------------

          program call               : /content/xtb_env/bin/xtb input.xyz --gfn 2 --opt tight --alpb water --chrg 2 --uhf 0
          hostname                   : 01035569fb61
          coordinate file            : input.xyz
          omp threads                :                     2


molecular fragmentation (1/2 indicates fragments):
1111111111111111111111111111111111111111111222222
# atoms in fragment 1/2:    43     6
 fragment masses (1/2) :      406.71       36.03
CMA distance (Bohr)    :   7.094
constraining FC (au)   :  0.0500

           -------------------------------------------------
          |                 G F N 2 - x T B                 |
           -------------------------------------------------

        Reference                      10.1021/acs.jctc.8b01176
      * Hamiltonian:
        H0-scaling (s, p, d)           1.850000    2.230000    2.230000
        zeta-weighting                 0.500000
      * Dispersion:
        s8                             2.700000
        a1                             0.520000
        a2                             5.000000
        s9                             5.000000
      * Repulsion:
        kExp                           1.500000    1.000000
        rExp                           1.000000
      * Coulomb:
        alpha                          2.000000
        third order                    shell-resolved
        anisotropic                    true
        a3                             3.000000
        a5                             4.000000
        cn-shift                       1.200000
        cn-exp                         4.000000
        max-rad                        5.000000

      * Solvation model:               ALPB
        Solvent                        water
        Parameter file                 internal GFN2-xTB/ALPB
        Dielectric constant                8.0200E+01
        Reference state                gsolv [1 M gas/solution]
        Free energy shift                  1.0808E-03 Eh       6.7819E-01 kcal/mol
        Temperature                        2.9815E+02 K
        Density                            1.0000E+00 kg/L
        Solvent mass                       1.8000E+01 g/mol
        Interaction kernel             P16
        Born radius scaling (c1)           1.4744E+00
        Born radii integrator          GBOBC
        Born offset                        0.0000E+00 a0       0.0000E+00 AA
        H-bond correction              true
        Ion screening                  false
        Surface tension                    1.0000E-05 Eh       1.5569E+01 dyn/cm
        Grid points                               230 per atom

          ...................................................
          :                      SETUP                      :
          :.................................................:
          :  # basis functions                 118          :
          :  # atomic orbitals                 118          :
          :  # shells                           72          :
          :  # electrons                       134          :
          :  max. iterations                   250          :
          :  Hamiltonian                  GFN2-xTB          :
          :  restarted?                      false          :
          :  GBSA solvation                   true          :
          :  PC potential                    false          :
          :  electronic temp.          300.0000000     K    :
          :  accuracy                    1.0000000          :
          :  -> integral cutoff          0.2500000E+02      :
          :  -> integral neglect         0.1000000E-07      :
          :  -> SCF convergence          0.1000000E-05 Eh   :
          :  -> wf. convergence          0.1000000E-03 e    :
          :  Broyden damping             0.4000000          :
          :  net charge                          2          :
          :  unpaired electrons                  0          :
          ...................................................

 iter      E             dE          RMSdq      gap      omega  full diag
   1    -75.7095595 -0.757096E+02  0.727E+00    0.14       0.0  T
   2    -76.8026282 -0.109307E+01  0.539E+00    0.39       1.0  T
   3    -76.9410650 -0.138437E+00  0.410E+00    0.31       1.0  T
   4    -76.3886769  0.552388E+00  0.368E+00    0.36       1.0  T
   5    -77.0760257 -0.687349E+00  0.293E+00    0.25       1.0  T
   6    -77.2308474 -0.154822E+00  0.152E+00    0.00       1.0  T
   7    -77.1520042  0.788432E-01  0.176E+00    0.22       1.0  T
   8    -77.2390680 -0.870638E-01  0.153E+00    0.46       1.0  T
   9    -77.2526172 -0.135492E-01  0.137E+00    0.33       1.0  T
  10    -77.2496022  0.301507E-02  0.136E+00    0.37       1.0  T
  11    -77.1780739  0.715283E-01  0.127E+00    0.24       1.0  T
  12    -77.2801072 -0.102033E+00  0.777E-01    0.14       1.0  T
  13    -77.3000674 -0.199602E-01  0.317E-01    0.01       1.0  T
  14    -77.3033225 -0.325514E-02  0.163E-01    0.05       1.0  T
  15    -77.3019906  0.133190E-02  0.247E-01    0.06       1.0  T
  16    -77.3047483 -0.275765E-02  0.457E-02    0.04       1.0  T
  17    -77.3046702  0.780468E-04  0.713E-02    0.03       1.0  T
  18    -77.3048730 -0.202760E-03  0.948E-03    0.04       1.5  T
  19    -77.3048714  0.155122E-05  0.113E-02    0.04       1.3  T
  20    -77.3048733 -0.191156E-05  0.949E-03    0.04       1.5  T
  21    -77.3048755 -0.217048E-05  0.579E-03    0.04       2.5  T
  22    -77.3048771 -0.153610E-05  0.135E-03    0.04      10.6  T
  23    -77.3048770  0.599417E-07  0.172E-03    0.04       8.3  T
  24    -77.3048771 -0.127761E-06  0.256E-04    0.04      55.7  T
  25    -77.3048771 -0.921176E-09  0.198E-04    0.04      72.0  T

   *** convergence criteria satisfied after 25 iterations ***

         #    Occupation            Energy/Eh            Energy/eV
      -------------------------------------------------------------
         1        2.0000           -1.3775423             -37.4848
       ...           ...                  ...                  ...
        61        2.0000           -0.3186537              -8.6710
        62        2.0000           -0.3050619              -8.3012
        63        2.0000           -0.2998759              -8.1600
        64        2.0000           -0.2404046              -6.5417
        65        2.0000           -0.2103117              -5.7229
        66        1.9997           -0.1697152              -4.6182
        67        1.3410           -0.1620568              -4.4098 (HOMO)
        68        0.6593           -0.1607077              -4.3731 (LUMO)
        69        0.0000           -0.1500998              -4.0844
        70                         -0.1171085              -3.1867
        71                         -0.0916604              -2.4942
        72                         -0.0816589              -2.2221
       ...                                ...                  ...
       118                         80.7048105            2196.0897
      -------------------------------------------------------------
                  HL-Gap            0.0013491 Eh            0.0367 eV
             Fermi-level           -0.1613819 Eh           -4.3914 eV

 SCC (total)                   0 d,  0 h,  0 min,  2.004 sec
 SCC setup                      ...        0 min,  0.008 sec (  0.391%)
 Dispersion                     ...        0 min,  0.008 sec (  0.399%)
 classical contributions        ...        0 min,  0.004 sec (  0.179%)
 integral evaluation            ...        0 min,  0.027 sec (  1.344%)
 iterations                     ...        0 min,  1.865 sec ( 93.098%)
 molecular gradient             ...        0 min,  0.088 sec (  4.373%)
 printout                       ...        0 min,  0.004 sec (  0.213%)

         :::::::::::::::::::::::::::::::::::::::::::::::::::::
         ::                     SUMMARY                     ::
         :::::::::::::::::::::::::::::::::::::::::::::::::::::
         :: total energy             -68.794214579920 Eh    ::
         :: total w/o Gsasa/hb       -68.736859550866 Eh    ::
         :: gradient norm             44.467721950317 Eh/a0 ::
         :: HOMO-LUMO gap              0.036711706023 eV    ::
         ::.................................................::
         :: SCC energy               -77.305011953789 Eh    ::
         :: -> isotropic ES            2.048543048551 Eh    ::
         :: -> anisotropic ES          0.007178120040 Eh    ::
         :: -> anisotropic XC         -0.006325769829 Eh    ::
         :: -> dispersion             -0.044790476745 Eh    ::
         :: -> Gsolv                  -1.094417457272 Eh    ::
         ::    -> Gelec               -1.037062428218 Eh    ::
         ::    -> Gsasa                0.000181563022 Eh    ::
         ::    -> Ghb                 -0.058617351775 Eh    ::
         ::    -> Gshift               0.001080759698 Eh    ::
         :: repulsion energy           8.510797373869 Eh    ::
         :: add. restraining           0.000000000000 Eh    ::
         :: total charge               2.000000000018 e     ::
         :::::::::::::::::::::::::::::::::::::::::::::::::::::

      ----------------------------------------------------------- 
     |                   =====================                   |
     |                        A N C O P T                        |
     |                   =====================                   |
     |               Approximate Normal Coordinate               |
     |                Rational Function Optimizer                |
      ----------------------------------------------------------- 
      ----------------------------------------------------------- 
     |                   =====================                   |
     |                        A N C O P T                        |
     |                   =====================                   |
     |               Approximate Normal Coordinate               |
     |                Rational Function Optimizer                |
      ----------------------------------------------------------- 

          ...................................................
          :                      SETUP                      :
          :.................................................:
          :   optimization level             tight          :
          :   max. optcycles                   245          :
          :   ANC micro-cycles                  20          :
          :   degrees of freedom               141          :
          :.................................................:
          :   RF solver                   davidson          :
          :   write xtbopt.log                true          :
          :   linear?                        false          :
          :   energy convergence         0.1000000E-05 Eh   :
          :   grad. convergence          0.8000000E-03 Eh/α :
          :   maxmium RF displ.          1.0000000          :
          :   Hlow (freq-cutoff)         0.1000000E-01      :
          :   Hmax (freq-cutoff)         5.0000000          :
          :   S6 in model hess.         20.0000000          :
          ...................................................

generating ANC from exact Hessian ...
Using Lindh-Hessian (1995)
 Shifting diagonal of input Hessian by    1.0171623843953264E-002
 Lowest  eigenvalues of input Hessian
    0.010000    0.010056    0.010102    0.010122    0.000000    0.000000
    0.000000    0.000000    0.000000    0.000000    0.010247    0.010280
    0.010347    0.010349    0.010499    0.010629    0.010636    0.010643
 Highest eigenvalues
    3.171767    3.747785    5.542996   12.824331   16.263431   39.052754


........................................................................
.............................. CYCLE    1 ..............................
........................................................................

 iter      E             dE          RMSdq      gap      omega  full diag
   1    -77.3048771 -0.773049E+02  0.300E-04    0.04       0.0  T
   2    -77.3048765  0.591144E-06  0.354E-03    0.04       4.0  T
   3    -77.3048771 -0.579400E-06  0.499E-04    0.04      28.6  T
   4    -77.3048771 -0.130399E-07  0.230E-04    0.04      62.0  T
     SCC iter.                  ...        0 min,  0.083 sec
     gradient                   ...        0 min,  0.106 sec
 * total energy  :   -68.7942146 Eh     change        0.9815437E-09 Eh
   gradient norm :    44.4677110 Eh/α   predicted     0.0000000E+00 (-100.00%)
   displ. norm   :     0.9455625 α      lambda       -0.4185186E+02
   maximum displ.:     0.8201429 α      in ANC's #140, #139, #129, ...

........................................................................
.............................. CYCLE    2 ..............................
........................................................................

 iter      E             dE          RMSdq      gap      omega  full diag
   1    -77.7321298 -0.777321E+02  0.557E+00    0.22       0.0  T
   2    -78.0032482 -0.271118E+00  0.405E+00    0.34       1.0  T
   3    -78.4552463 -0.451998E+00  0.226E+00    1.28       1.0  T
   4    -78.3963550  0.588913E-01  0.221E+00    0.64       1.0  T
   5    -78.5448178 -0.148463E+00  0.149E+00    1.19       1.0  T
   6    -78.5856093 -0.407915E-01  0.113E+00    0.51       1.0  T
   7    -78.5585569  0.270524E-01  0.130E+00    0.08       1.0  T
   8    -78.5950183 -0.364615E-01  0.991E-01    0.52       1.0  T
   9    -78.6362958 -0.412775E-01  0.690E-01    0.14       1.0  T
  10    -78.6135898  0.227060E-01  0.884E-01    0.04       1.0  T
  11    -78.6357297 -0.221399E-01  0.692E-01    0.14       1.0  T
  12    -78.6812660 -0.455363E-01  0.845E-02    0.03       1.0  T
  13    -78.6796443  0.162163E-02  0.154E-01    0.05       1.0  T
  14    -78.6819148 -0.227045E-02  0.970E-03    0.04       1.5  T
  15    -78.6818482  0.665788E-04  0.278E-02    0.03       1.0  T
  16    -78.6819223 -0.741469E-04  0.991E-04    0.04      14.4  T
  17    -78.6819063  0.160738E-04  0.130E-02    0.04       1.1  T
  18    -78.6819221 -0.158175E-04  0.188E-03    0.04       7.6  T
  19    -78.6819221 -0.201804E-07  0.171E-03    0.04       8.4  T
  20    -78.6819223 -0.235718E-06  0.663E-04    0.04      21.5  T
  21    -78.6819224 -0.388073E-07  0.176E-04    0.04      81.3  T
     SCC iter.                  ...        0 min,  0.598 sec
     gradient                   ...        0 min,  0.093 sec
 * total energy  :   -76.9167998 Eh     change       -0.8122585E+01 Eh
   gradient norm :     3.0942966 Eh/α   predicted    -0.3981987E+02 ( 390.24%)
   displ. norm   :     0.6649889 α      lambda       -0.1852292E+01
   maximum displ.:     0.4165317 α      in ANC's #135, #121, #136, ...

........................................................................
.............................. CYCLE    3 ..............................
........................................................................

 iter      E             dE          RMSdq      gap      omega  full diag
   1    -78.2355836 -0.782356E+02  0.400E+00    0.29       0.0  T
   2    -78.5529802 -0.317397E+00  0.301E+00    1.80       1.0  T
   3    -78.9234516 -0.370471E+00  0.144E+00    1.15       1.0  T
   4    -78.9533031 -0.298516E-01  0.979E-01    0.76       1.0  T
   5    -78.9677209 -0.144178E-01  0.611E-01    0.27       1.0  T
   6    -78.3906257  0.577095E+00  0.306E+00    0.33       1.0  T
   7    -78.9732662 -0.582641E+00  0.251E-01    0.15       1.0  T
   8    -78.9120075  0.612587E-01  0.101E+00    0.02       1.0  T
   9    -78.9716348 -0.596273E-01  0.231E-01    0.18       1.0  T
  10    -78.9749856 -0.335083E-02  0.177E-02    0.12       1.0  T
  11    -78.9748362  0.149422E-03  0.525E-02    0.13       1.0  T
  12    -78.9749684 -0.132240E-03  0.214E-02    0.12       1.0  T
  13    -78.9749690 -0.616199E-06  0.205E-02    0.12       1.0  T
  14    -78.9749835 -0.144954E-04  0.130E-02    0.12       1.1  T
  15    -78.9749925 -0.898132E-05  0.407E-03    0.12       3.5  T
  16    -78.9749933 -0.844762E-06  0.119E-03    0.12      12.0  T
  17    -78.9749933  0.152888E-07  0.130E-03    0.12      11.0  T
  18    -78.9749934 -0.992298E-07  0.599E-05    0.12     238.6  T
  19    -78.9749934  0.530065E-11  0.436E-05    0.12     327.6  T
     SCC iter.                  ...        0 min,  0.300 sec
     gradient                   ...        0 min,  0.060 sec
 * total energy  :   -77.7906706 Eh     change       -0.8738708E+00 Eh
   gradient norm :     0.7765638 Eh/α   predicted    -0.1335698E+01 (  52.85%)
   displ. norm   :     0.6635979 α      lambda       -0.3670617E+00
   maximum displ.:     0.2597063 α      in ANC's #67, #65, #70, ...

........................................................................
.............................. CYCLE    4 ..............................
........................................................................

 iter      E             dE          RMSdq      gap      omega  full diag
   1    -79.1145723 -0.791146E+02  0.633E-01    0.46       0.0  T
   2    -78.6546939  0.459878E+00  0.284E+00    0.09       1.0  T
   3    -79.1188915 -0.464198E+00  0.372E-01    0.32       1.0  T
   4    -79.1208040 -0.191252E-02  0.179E-01    0.17       1.0  T
   5    -79.1199477  0.856258E-03  0.161E-01    0.12       1.0  T
   6    -79.1208391 -0.891382E-03  0.871E-02    0.13       1.0  T
   7    -79.1212261 -0.386967E-03  0.239E-02    0.15       1.0  T
   8    -79.1212430 -0.168798E-04  0.996E-03    0.16       1.4  T
   9    -79.1212397  0.323257E-05  0.113E-02    0.16       1.3  T
  10    -79.1212442 -0.443852E-05  0.689E-03    0.16       2.1  T
  11    -79.1212455 -0.136269E-05  0.452E-03    0.16       3.2  T
  12    -79.1212460 -0.427945E-06  0.336E-03    0.16       4.2  T
  13    -79.1212463 -0.324810E-06  0.223E-03    0.16       6.4  T
  14    -79.1212465 -0.188768E-06  0.120E-03    0.16      11.9  T
  15    -79.1212465 -0.633955E-07  0.506E-04    0.16      28.2  T
  16    -79.1212465 -0.122043E-07  0.154E-04    0.16      93.1  T
     SCC iter.                  ...        0 min,  0.142 sec
     gradient                   ...        0 min,  0.060 sec
 * total energy  :   -78.0986630 Eh     change       -0.3079924E+00 Eh
   gradient norm :     0.6280198 Eh/α   predicted    -0.2643515E+00 ( -14.17%)
   displ. norm   :     0.7692143 α      lambda       -0.3287129E+00
   maximum displ.:     0.3065757 α      in ANC's #65, #67, #70, ...

........................................................................
.............................. CYCLE    5 ..............................
........................................................................

 iter      E             dE          RMSdq      gap      omega  full diag
   1    -79.2958283 -0.792958E+02  0.867E-01    0.82       0.0  T
   2    -79.3001925 -0.436416E-02  0.450E-01    0.83       1.0  T
   3    -79.3000658  0.126647E-03  0.220E-01    0.87       1.0  T
   4    -79.3006769 -0.611064E-03  0.860E-02    0.86       1.0  T
   5    -79.3007620 -0.851132E-04  0.325E-02    0.85       1.0  T
   6    -79.3007710 -0.899844E-05  0.218E-02    0.85       1.0  T
   7    -79.3007756 -0.463961E-05  0.846E-03    0.86       1.7  T
   8    -79.3007764 -0.767787E-06  0.358E-03    0.85       4.0  T
   9    -79.3007765 -0.953863E-07  0.148E-03    0.86       9.7  T
  10    -79.3007765 -0.121717E-07  0.665E-04    0.86      21.5  T
  11    -79.3007765 -0.378195E-08  0.320E-04    0.86      44.7  T
     SCC iter.                  ...        0 min,  0.156 sec
     gradient                   ...        0 min,  0.060 sec
 * total energy  :   -78.3854824 Eh     change       -0.2868194E+00 Eh
   gradient norm :     0.5304029 Eh/α   predicted    -0.2616059E+00 (  -8.79%)
   displ. norm   :     0.8161381 α      lambda       -0.2802439E+00
   maximum displ.:     0.3285823 α      in ANC's #65, #62, #67, ...

........................................................................
.............................. CYCLE    6 ..............................
........................................................................

 iter      E             dE          RMSdq      gap      omega  full diag
   1    -79.4591286 -0.794591E+02  0.859E-01    1.10       0.0  T
   2    -79.4651243 -0.599568E-02  0.413E-01    1.14       1.0  T
   3    -79.4651591 -0.348273E-04  0.235E-01    1.17       1.0  T
   4    -79.4655477 -0.388627E-03  0.106E-01    1.18       1.0  T
   5    -79.4657453 -0.197606E-03  0.283E-02    1.17       1.0  T
   6    -79.4657554 -0.100479E-04  0.178E-02    1.17       1.0  T
   7    -79.4657580 -0.260020E-05  0.836E-03    1.17       1.7  T
   8    -79.4657585 -0.530522E-06  0.348E-03    1.17       4.1  T
   9    -79.4657586 -0.121005E-06  0.146E-03    1.17       9.8  T
  10    -79.4657587 -0.831946E-08  0.623E-04    1.17      22.9  T
  11    -79.4657587 -0.364859E-08  0.304E-04    1.17      47.0  T
     SCC iter.                  ...        0 min,  0.105 sec
     gradient                   ...        0 min,  0.056 sec
 * total energy  :   -78.6233661 Eh     change       -0.2378836E+00 Eh
   gradient norm :     0.4339160 Eh/α   predicted    -0.2334552E+00 (  -1.86%)
   displ. norm   :     0.7694505 α      lambda       -0.2094833E+00
   maximum displ.:     0.2920510 α      in ANC's #65, #62, #67, ...

........................................................................
.............................. CYCLE    7 ..............................
........................................................................

 iter      E             dE          RMSdq      gap      omega  full diag
   1    -79.5992118 -0.795992E+02  0.627E-01    1.17       0.0  T
   2    -79.6024799 -0.326807E-02  0.336E-01    1.23       1.0  T
   3    -79.6024907 -0.108538E-04  0.196E-01    1.24       1.0  T
   4    -79.6028139 -0.323108E-03  0.895E-02    1.25       1.0  T
   5    -79.6029633 -0.149482E-03  0.234E-02    1.25       1.0  T
   6    -79.6029690 -0.564491E-05  0.138E-02    1.24       1.0  T
   7    -79.6029711 -0.213300E-05  0.681E-03    1.24       2.1  T
   8    -79.6029714 -0.307704E-06  0.259E-03    1.24       5.5  T
   9    -79.6029715 -0.813422E-07  0.123E-03    1.24      11.6  T
  10    -79.6029715 -0.827941E-08  0.538E-04    1.24      26.6  T
  11    -79.6029715 -0.244114E-08  0.230E-04    1.24      62.0  T
     SCC iter.                  ...        0 min,  0.196 sec
     gradient                   ...        0 min,  0.060 sec
 * total energy  :   -78.7988706 Eh     change       -0.1755045E+00 Eh
   gradient norm :     0.3289001 Eh/α   predicted    -0.1667549E+00 (  -4.99%)
   displ. norm   :     0.7422383 α      lambda       -0.1555139E+00
   maximum displ.:     0.2605520 α      in ANC's #65, #29, #62, ...

........................................................................
.............................. CYCLE    8 ..............................
........................................................................

 iter      E             dE          RMSdq      gap      omega  full diag
   1    -79.7182689 -0.797183E+02  0.528E-01    0.96       0.0  T
   2    -79.7205879 -0.231892E-02  0.289E-01    1.03       1.0  T
   3    -79.7205850  0.282851E-05  0.167E-01    1.04       1.0  T
   4    -79.7208644 -0.279375E-03  0.763E-02    1.06       1.0  T
   5    -79.7209768 -0.112376E-03  0.202E-02    1.05       1.0  T
   6    -79.7209817 -0.495001E-05  0.107E-02    1.05       1.3  T
   7    -79.7209828 -0.110208E-05  0.576E-03    1.05       2.5  T
   8    -79.7209831 -0.267599E-06  0.242E-03    1.05       5.9  T
   9    -79.7209832 -0.707069E-07  0.120E-03    1.05      11.9  T
  10    -79.7209832 -0.108240E-07  0.537E-04    1.05      26.6  T
  11    -79.7209832 -0.263096E-08  0.209E-04    1.05      68.3  T
     SCC iter.                  ...        0 min,  0.167 sec
     gradient                   ...        0 min,  0.100 sec
 * total energy  :   -78.9280363 Eh     change       -0.1291657E+00 Eh
   gradient norm :     0.2347492 Eh/α   predicted    -0.1205948E+00 (  -6.64%)
   displ. norm   :     0.7375523 α      lambda       -0.1164004E+00
   maximum displ.:     0.2892483 α      in ANC's #29, #62, #65, ...

........................................................................
.............................. CYCLE    9 ..............................
........................................................................

 iter      E             dE          RMSdq      gap      omega  full diag
   1    -79.8253729 -0.798254E+02  0.474E-01    0.65       0.0  T
   2    -79.8271202 -0.174728E-02  0.259E-01    0.71       1.0  T
   3    -79.8270997  0.204408E-04  0.136E-01    0.73       1.0  T
   4    -79.8272509 -0.151221E-03  0.638E-02    0.74       1.0  T
   5    -79.8273486 -0.976400E-04  0.176E-02    0.74       1.0  T
   6    -79.8273529 -0.437257E-05  0.911E-03    0.73       1.6  T
   7    -79.8273534 -0.484743E-06  0.458E-03    0.73       3.1  T
   8    -79.8273536 -0.166352E-06  0.208E-03    0.73       6.9  T
   9    -79.8273537 -0.546375E-07  0.110E-03    0.73      13.0  T
  10    -79.8273537 -0.109333E-07  0.503E-04    0.73      28.4  T
  11    -79.8273537 -0.282652E-08  0.194E-04    0.73      73.5  T
     SCC iter.                  ...        0 min,  0.189 sec
     gradient                   ...        0 min,  0.061 sec
 * total energy  :   -79.0255797 Eh     change       -0.9754342E-01 Eh
   gradient norm :     0.1737969 Eh/α   predicted    -0.8986054E-01 (  -7.88%)
   displ. norm   :     0.7525931 α      lambda       -0.9173240E-01
   maximum displ.:     0.3331782 α      in ANC's #29, #62, #73, ...

........................................................................
.............................. CYCLE   10 ..............................
........................................................................

 iter      E             dE          RMSdq      gap      omega  full diag
   1    -79.9190153 -0.799190E+02  0.433E-01    0.38       0.0  T
   2    -79.9201046 -0.108927E-02  0.239E-01    0.41       1.0  T
   3    -79.9201319 -0.272874E-04  0.958E-02    0.43       1.0  T
   4    -79.9201687 -0.368204E-04  0.277E-02    0.44       1.0  T
   5    -79.9201816 -0.128678E-04  0.132E-02    0.44       1.1  T
   6    -79.9201841 -0.252602E-05  0.764E-03    0.43       1.9  T
   7    -79.9201846 -0.507717E-06  0.342E-03    0.43       4.2  T
   8    -79.9201848 -0.147369E-06  0.152E-03    0.43       9.4  T
   9    -79.9201848 -0.273421E-07  0.855E-04    0.43      16.7  T
  10    -79.9201848 -0.651001E-08  0.360E-04    0.43      39.6  T
     SCC iter.                  ...        0 min,  0.109 sec
     gradient                   ...        0 min,  0.101 sec
 * total energy  :   -79.1030967 Eh     change       -0.7751694E-01 Eh
   gradient norm :     0.1451827 Eh/α   predicted    -0.7184476E-01 (  -7.32%)
   displ. norm   :     0.7635400 α      lambda       -0.7455833E-01
   maximum displ.:     0.3688505 α      in ANC's #29, #73, #38, ...

........................................................................
.............................. CYCLE   11 ..............................
........................................................................

 iter      E             dE          RMSdq      gap      omega  full diag
   1    -79.9916720 -0.799917E+02  0.401E-01    0.21       0.0  T
   2    -79.9924029 -0.730864E-03  0.224E-01    0.26       1.0  T
   3    -79.9923209  0.819284E-04  0.107E-01    0.25       1.0  T
   4    -79.9924461 -0.125196E-03  0.378E-02    0.26       1.0  T
   5    -79.9924930 -0.468457E-04  0.120E-02    0.26       1.2  T
   6    -79.9924943 -0.134469E-05  0.650E-03    0.25       2.2  T
   7    -79.9924945 -0.197249E-06  0.221E-03    0.26       6.5  T
   8    -79.9924946 -0.703522E-07  0.925E-04    0.26      15.4  T
   9    -79.9924946 -0.988143E-08  0.508E-04    0.26      28.1  T
     SCC iter.                  ...        0 min,  0.074 sec
     gradient                   ...        0 min,  0.060 sec
 * total energy  :   -79.1660514 Eh     change       -0.6295474E-01 Eh
   gradient norm :     0.1404897 Eh/α   predicted    -0.5901277E-01 (  -6.26%)
   displ. norm   :     0.7420590 α      lambda       -0.6073231E-01
   maximum displ.:     0.3963463 α      in ANC's #29, #73, #38, ...

........................................................................
.............................. CYCLE   12 ..............................
........................................................................

 iter      E             dE          RMSdq      gap      omega  full diag
   1    -80.0417727 -0.800418E+02  0.353E-01    0.21       0.0  T
   2    -80.0421172 -0.344489E-03  0.201E-01    0.23       1.0  T
   3    -80.0420021  0.115148E-03  0.918E-02    0.23       1.0  T
   4    -80.0421579 -0.155811E-03  0.287E-02    0.23       1.0  T
   5    -80.0421827 -0.247581E-04  0.108E-02    0.23       1.3  T
   6    -80.0421830 -0.362957E-06  0.519E-03    0.23       2.8  T
   7    -80.0421832 -0.162316E-06  0.138E-03    0.23      10.3  T
   8    -80.0421832 -0.244747E-07  0.707E-04    0.23      20.2  T
   9    -80.0421832 -0.363121E-08  0.360E-04    0.23      39.7  T
     SCC iter.                  ...        0 min,  0.094 sec
     gradient                   ...        0 min,  0.096 sec
 * total energy  :   -79.2161339 Eh     change       -0.5008244E-01 Eh
   gradient norm :     0.1392798 Eh/α   predicted    -0.4708741E-01 (  -5.98%)
   displ. norm   :     0.7055188 α      lambda       -0.4946718E-01
   maximum displ.:     0.4175213 α      in ANC's #29, #73, #38, ...

........................................................................
.............................. CYCLE   13 ..............................
........................................................................

 iter      E             dE          RMSdq      gap      omega  full diag
   1    -80.0749332 -0.800749E+02  0.304E-01    0.42       0.0  T
   2    -80.0751377 -0.204451E-03  0.176E-01    0.39       1.0  T
   3    -80.0750881  0.495656E-04  0.607E-02    0.37       1.0  T
   4    -80.0751641 -0.759538E-04  0.236E-02    0.37       1.0  T
   5    -80.0751782 -0.140876E-04  0.104E-02    0.37       1.4  T
   6    -80.0751790 -0.798924E-06  0.599E-03    0.38       2.4  T
   7    -80.0751792 -0.188247E-06  0.262E-03    0.38       5.5  T
   8    -80.0751792 -0.628207E-07  0.121E-03    0.38      11.8  T
   9    -80.0751792 -0.164428E-07  0.623E-04    0.38      22.9  T
  10    -80.0751792 -0.293210E-08  0.270E-04    0.38      52.9  T
     SCC iter.                  ...        0 min,  0.082 sec
     gradient                   ...        0 min,  0.054 sec
 * total energy  :   -79.2582919 Eh     change       -0.4215800E-01 Eh
   gradient norm :     0.1305197 Eh/α   predicted    -0.3704493E-01 ( -12.13%)
   displ. norm   :     0.7112055 α      lambda       -0.4884226E-01
   maximum displ.:     0.3915054 α      in ANC's #29, #38, #87, ...

........................................................................
.............................. CYCLE   14 ..............................
........................................................................

 iter      E             dE          RMSdq      gap      omega  full diag
   1    -80.1013594 -0.801014E+02  0.309E-01    0.80       0.0  T
   2    -80.1016789 -0.319469E-03  0.173E-01    0.78       1.0  T
   3    -80.1016751  0.380144E-05  0.609E-02    0.76       1.0  T
   4    -80.1017121 -0.370276E-04  0.272E-02    0.76       1.0  T
   5    -80.1017276 -0.155249E-04  0.126E-02    0.76       1.1  T
   6    -80.1017291 -0.144151E-05  0.800E-03    0.76       1.8  T
   7    -80.1017295 -0.470066E-06  0.345E-03    0.76       4.1  T
   8    -80.1017297 -0.188348E-06  0.166E-03    0.76       8.6  T
   9    -80.1017297 -0.186435E-07  0.720E-04    0.76      19.8  T
  10    -80.1017297 -0.473965E-08  0.309E-04    0.76      46.2  T
     SCC iter.                  ...        0 min,  0.153 sec
     gradient                   ...        0 min,  0.100 sec
 * total energy  :   -79.3000598 Eh     change       -0.4176795E-01 Eh
   gradient norm :     0.1082600 Eh/α   predicted    -0.3677370E-01 ( -11.96%)
   displ. norm   :     0.7139285 α      lambda       -0.4447590E-01
   maximum displ.:     0.3347393 α      in ANC's #29, #38, #87, ...

........................................................................
.............................. CYCLE   15 ..............................
........................................................................

 iter      E             dE          RMSdq      gap      omega  full diag
   1    -80.1208659 -0.801209E+02  0.314E-01    1.30       0.0  T
   2    -80.1214018 -0.535829E-03  0.174E-01    1.28       1.0  T
   3    -80.1213362  0.655349E-04  0.939E-02    1.26       1.0  T
   4    -80.1214882 -0.151954E-03  0.393E-02    1.26       1.0  T
   5    -80.1215136 -0.254363E-04  0.155E-02    1.26       1.0  T
   6    -80.1215153 -0.171533E-05  0.957E-03    1.26       1.5  T
   7    -80.1215159 -0.609099E-06  0.379E-03    1.26       3.8  T
   8    -80.1215161 -0.199143E-06  0.197E-03    1.26       7.3  T
   9    -80.1215162 -0.299221E-07  0.100E-03    1.26      14.2  T
  10    -80.1215162 -0.834561E-08  0.342E-04    1.26      41.7  T
  11    -80.1215162 -0.144303E-08  0.148E-04    1.26      96.4  T
     SCC iter.                  ...        0 min,  0.148 sec
     gradient                   ...        0 min,  0.064 sec
 * total energy  :   -79.3367554 Eh     change       -0.3669558E-01 Eh
   gradient norm :     0.0846693 Eh/α   predicted    -0.3357255E-01 (  -8.51%)
   displ. norm   :     0.6923571 α      lambda       -0.3259551E-01
   maximum displ.:     0.3099014 α      in ANC's #29, #38, #93, ...

........................................................................
.............................. CYCLE   16 ..............................
........................................................................

 iter      E             dE          RMSdq      gap      omega  full diag
   1    -80.1401387 -0.801401E+02  0.276E-01    1.69       0.0  T
   2    -80.1405283 -0.389582E-03  0.160E-01    1.68       1.0  T
   3    -80.1404658  0.624981E-04  0.954E-02    1.66       1.0  T
   4    -80.1406466 -0.180851E-03  0.352E-02    1.66       1.0  T
   5    -80.1406614 -0.147622E-04  0.151E-02    1.66       1.0  T
   6    -80.1406624 -0.102996E-05  0.892E-03    1.66       1.6  T
   7    -80.1406630 -0.616198E-06  0.369E-03    1.66       3.9  T
   8    -80.1406633 -0.223028E-06  0.172E-03    1.66       8.3  T
   9    -80.1406633 -0.213658E-07  0.934E-04    1.66      15.3  T
  10    -80.1406633 -0.628913E-08  0.279E-04    1.66      51.1  T
     SCC iter.                  ...        0 min,  0.196 sec
     gradient                   ...        0 min,  0.072 sec
 * total energy  :   -79.3630689 Eh     change       -0.2631351E-01 Eh
   gradient norm :     0.0779553 Eh/α   predicted    -0.2411026E-01 (  -8.37%)
   displ. norm   :     0.6947441 α      lambda       -0.2411591E-01
   maximum displ.:     0.3075884 α      in ANC's #38, #29, #44, ...

........................................................................
.............................. CYCLE   17 ..............................
........................................................................

 iter      E             dE          RMSdq      gap      omega  full diag
   1    -80.1523402 -0.801523E+02  0.225E-01    1.90       0.0  T
   2    -80.1525505 -0.210260E-03  0.132E-01    1.91       1.0  T
   3    -80.1525042  0.462208E-04  0.788E-02    1.90       1.0  T
   4    -80.1526333 -0.129059E-03  0.258E-02    1.90       1.0  T
   5    -80.1526410 -0.768789E-05  0.118E-02    1.90       1.2  T
   6    -80.1526418 -0.765760E-06  0.702E-03    1.90       2.0  T
   7    -80.1526421 -0.335546E-06  0.263E-03    1.90       5.4  T
   8    -80.1526422 -0.116240E-06  0.118E-03    1.90      12.1  T
   9    -80.1526422 -0.110644E-07  0.745E-04    1.90      19.2  T
  10    -80.1526422 -0.410576E-08  0.234E-04    1.90      61.1  T
     SCC iter.                  ...        0 min,  0.222 sec
     gradient                   ...        0 min,  0.094 sec
 * total energy  :   -79.3824736 Eh     change       -0.1940468E-01 Eh
   gradient norm :     0.0802491 Eh/α   predicted    -0.1787797E-01 (  -7.87%)
   displ. norm   :     0.6845944 α      lambda       -0.2285603E-01
   maximum displ.:     0.3067711 α      in ANC's #29, #93, #48, ...

........................................................................
.............................. CYCLE   18 ..............................
........................................................................

 iter      E             dE          RMSdq      gap      omega  full diag
   1    -80.1832198 -0.801832E+02  0.252E-01    2.08       0.0  T
   2    -80.1834450 -0.225173E-03  0.141E-01    2.08       1.0  T
   3    -80.1834413  0.363555E-05  0.488E-02    2.10       1.0  T
   4    -80.1834614 -0.200958E-04  0.220E-02    2.10       1.0  T
   5    -80.1834687 -0.726523E-05  0.108E-02    2.10       1.3  T
   6    -80.1834689 -0.246885E-06  0.498E-03    2.09       2.9  T
   7    -80.1834692 -0.272375E-06  0.171E-03    2.09       8.3  T
   8    -80.1834692 -0.281010E-07  0.939E-04    2.09      15.2  T
   9    -80.1834692 -0.112304E-07  0.595E-04    2.09      24.0  T
     SCC iter.                  ...        0 min,  0.078 sec
     gradient                   ...        0 min,  0.096 sec
 * total energy  :   -79.3973074 Eh     change       -0.1483384E-01 Eh
   gradient norm :     0.0809336 Eh/α   predicted    -0.1678400E-01 (  13.15%)
   displ. norm   :     0.6495331 α      lambda       -0.1813640E-01
   maximum displ.:     0.3133648 α      in ANC's #38, #44, #48, ...

........................................................................
.............................. CYCLE   19 ..............................
........................................................................

 iter      E             dE          RMSdq      gap      omega  full diag
   1    -80.1867724 -0.801868E+02  0.187E-01    2.08       0.0  T
   2    -80.1869346 -0.162157E-03  0.104E-01    2.08       1.0  T
   3    -80.1869061  0.284727E-04  0.516E-02    2.10       1.0  T
   4    -80.1869563 -0.501558E-04  0.187E-02    2.10       1.0  T
   5    -80.1869631 -0.685572E-05  0.678E-03    2.10       2.1  T
   6    -80.1869636 -0.461219E-06  0.387E-03    2.10       3.7  T
   7    -80.1869637 -0.603725E-07  0.155E-03    2.10       9.2  T
   8    -80.1869637 -0.149673E-07  0.634E-04    2.10      22.5  T
   9    -80.1869637 -0.651650E-08  0.319E-04    2.10      44.8  T
     SCC iter.                  ...        0 min,  0.129 sec
     gradient                   ...        0 min,  0.064 sec
 * total energy  :   -79.4087952 Eh     change       -0.1148776E-01 Eh
   gradient norm :     0.0656604 Eh/α   predicted    -0.1289404E-01 (  12.24%)
   displ. norm   :     0.4751361 α      lambda       -0.8300596E-02
   maximum displ.:     0.1953326 α      in ANC's #44, #38, #48, ...

........................................................................
.............................. CYCLE   20 ..............................
........................................................................

 iter      E             dE          RMSdq      gap      omega  full diag
   1    -80.1921190 -0.801921E+02  0.121E-01    2.12       0.0  T
   2    -80.1922107 -0.916779E-04  0.702E-02    2.13       1.0  T
   3    -80.1922058  0.493923E-05  0.421E-02    2.12       1.0  T
   4    -80.1922321 -0.263182E-04  0.133E-02    2.12       1.1  T
   5    -80.1922355 -0.343096E-05  0.519E-03    2.12       2.8  T
   6    -80.1922359 -0.417611E-06  0.295E-03    2.12       4.8  T
   7    -80.1922359 -0.176557E-07  0.125E-03    2.12      11.4  T
   8    -80.1922360 -0.153791E-07  0.474E-04    2.12      30.1  T
   9    -80.1922360 -0.417646E-08  0.221E-04    2.12      64.7  T
     SCC iter.                  ...        0 min,  0.190 sec
     gradient                   ...        0 min,  0.107 sec
 * total energy  :   -79.4151376 Eh     change       -0.6342403E-02 Eh
   gradient norm :     0.0633270 Eh/α   predicted    -0.5087265E-02 ( -19.79%)
   displ. norm   :     0.5491736 α      lambda       -0.9183695E-02
   maximum displ.:     0.2236616 α      in ANC's #48, #9, #44, ...
 * RMSD in coord.:     1.3045550 α      energy gain  -0.1062092E+02 Eh

generating ANC from exact Hessian ...
Using Lindh-Hessian (1995)
 Shifting diagonal of input Hessian by    1.2936240734249718E-002
 Lowest  eigenvalues of input Hessian
    0.010000    0.010930    0.012672    0.012713    0.000000    0.000000
    0.000000    0.000000    0.000000    0.000000    0.013174    0.013287
    0.013350    0.013481    0.013520    0.013694    0.013800    0.014104
 Highest eigenvalues
    1.832901    1.895419    1.958926    2.062526    2.182044    2.280227


........................................................................
.............................. CYCLE   21 ..............................
........................................................................

 iter      E             dE          RMSdq      gap      omega  full diag
   1    -80.2043219 -0.802043E+02  0.148E-01    2.14       0.0  T
   2    -80.2047191 -0.397239E-03  0.980E-02    2.12       1.0  T
   3    -80.2047811 -0.619690E-04  0.566E-02    2.12       1.0  T
   4    -80.2047833 -0.222492E-05  0.261E-02    2.13       1.0  T
   5    -80.2047968 -0.134720E-04  0.847E-03    2.13       1.7  T
   6    -80.2047979 -0.118453E-05  0.428E-03    2.13       3.3  T
   7    -80.2047980 -0.284417E-07  0.154E-03    2.13       9.3  T
   8    -80.2047980 -0.209571E-07  0.734E-04    2.13      19.5  T
   9    -80.2047980 -0.102532E-07  0.268E-04    2.13      53.3  T
     SCC iter.                  ...        0 min,  0.119 sec
     gradient                   ...        0 min,  0.056 sec
 * total energy  :   -79.4210453 Eh     change       -0.5907707E-02 Eh
   gradient norm :     0.0632377 Eh/α   predicted     0.0000000E+00 (-100.00%)
   displ. norm   :     0.3090991 α      lambda       -0.7605054E-02
   maximum displ.:     0.1298580 α      in ANC's #28, #40, #1, ...

........................................................................
.............................. CYCLE   22 ..............................
........................................................................

 iter      E             dE          RMSdq      gap      omega  full diag
   1    -80.2049529 -0.802050E+02  0.143E-01    1.94       0.0  T
   2    -80.2050469 -0.939831E-04  0.851E-02    1.94       1.0  T
   3    -80.2050300  0.169228E-04  0.514E-02    1.93       1.0  T
   4    -80.2050801 -0.501727E-04  0.125E-02    1.93       1.1  T
   5    -80.2050840 -0.384088E-05  0.472E-03    1.93       3.0  T
   6    -80.2050843 -0.291489E-06  0.252E-03    1.93       5.7  T
   7    -80.2050843 -0.393201E-07  0.991E-04    1.94      14.4  T
   8    -80.2050843 -0.534055E-08  0.576E-04    1.94      24.8  T
     SCC iter.                  ...        0 min,  0.086 sec
     gradient                   ...        0 min,  0.094 sec
 * total energy  :   -79.4270427 Eh     change       -0.5997442E-02 Eh
   gradient norm :     0.0318312 Eh/α   predicted    -0.4168411E-02 ( -30.50%)
   displ. norm   :     0.4812401 α      lambda       -0.6700928E-02
   maximum displ.:     0.2313561 α      in ANC's #28, #40, #23, ...

........................................................................
.............................. CYCLE   23 ..............................
........................................................................

 iter      E             dE          RMSdq      gap      omega  full diag
   1    -80.2020226 -0.802020E+02  0.175E-01    1.69       0.0  T
   2    -80.2021404 -0.117802E-03  0.101E-01    1.68       1.0  T
   3    -80.2021073  0.331052E-04  0.663E-02    1.66       1.0  T
   4    -80.2021966 -0.892847E-04  0.147E-02    1.66       1.0  T
   5    -80.2022005 -0.391043E-05  0.642E-03    1.66       2.2  T
   6    -80.2022010 -0.562966E-06  0.332E-03    1.67       4.3  T
   7    -80.2022011 -0.570181E-07  0.159E-03    1.67       9.0  T
   8    -80.2022011 -0.191609E-07  0.877E-04    1.67      16.3  T
   9    -80.2022011 -0.103228E-07  0.382E-04    1.67      37.4  T
     SCC iter.                  ...        0 min,  0.093 sec
     gradient                   ...        0 min,  0.068 sec
 * total energy  :   -79.4317311 Eh     change       -0.4688328E-02 Eh
   gradient norm :     0.0245390 Eh/α   predicted    -0.4127060E-02 ( -11.97%)
   displ. norm   :     0.4537755 α      lambda       -0.3417267E-02
   maximum displ.:     0.2214889 α      in ANC's #28, #23, #40, ...

........................................................................
.............................. CYCLE   24 ..............................
........................................................................

 iter      E             dE          RMSdq      gap      omega  full diag
   1    -80.2004744 -0.802005E+02  0.114E-01    1.55       0.0  T
   2    -80.2005296 -0.551929E-04  0.654E-02    1.53       1.0  T
   3    -80.2005131  0.164203E-04  0.427E-02    1.51       1.0  T
   4    -80.2005501 -0.369898E-04  0.117E-02    1.51       1.2  T
   5    -80.2005517 -0.160956E-05  0.512E-03    1.51       2.8  T
   6    -80.2005521 -0.313387E-06  0.286E-03    1.51       5.0  T
   7    -80.2005521 -0.432658E-07  0.135E-03    1.52      10.6  T
   8    -80.2005521 -0.184440E-07  0.632E-04    1.52      22.6  T
   9    -80.2005521 -0.394778E-08  0.333E-04    1.52      42.8  T
     SCC iter.                  ...        0 min,  0.129 sec
     gradient                   ...        0 min,  0.061 sec
 * total energy  :   -79.4345629 Eh     change       -0.2831856E-02 Eh
   gradient norm :     0.0347731 Eh/α   predicted    -0.2060466E-02 ( -27.24%)
   displ. norm   :     0.6223530 α      lambda       -0.4785680E-02
   maximum displ.:     0.3125542 α      in ANC's #23, #28, #40, ...

........................................................................
.............................. CYCLE   25 ..............................
........................................................................

 iter      E             dE          RMSdq      gap      omega  full diag
   1    -80.2015552 -0.802016E+02  0.144E-01    1.48       0.0  T
   2    -80.2017211 -0.165840E-03  0.835E-02    1.42       1.0  T
   3    -80.2017256 -0.449278E-05  0.458E-02    1.39       1.0  T
   4    -80.2017440 -0.183934E-04  0.225E-02    1.39       1.0  T
   5    -80.2017537 -0.971445E-05  0.771E-03    1.40       1.9  T
   6    -80.2017540 -0.329290E-06  0.466E-03    1.40       3.1  T
   7    -80.2017542 -0.168290E-06  0.225E-03    1.40       6.3  T
   8    -80.2017542 -0.652068E-07  0.966E-04    1.40      14.8  T
   9    -80.2017542 -0.622742E-08  0.424E-04    1.40      33.7  T
     SCC iter.                  ...        0 min,  0.117 sec
     gradient                   ...        0 min,  0.062 sec
 * total energy  :   -79.4390663 Eh     change       -0.4503346E-02 Eh
   gradient norm :     0.0458649 Eh/α   predicted    -0.3319645E-02 ( -26.28%)
   displ. norm   :     0.8019483 α      lambda       -0.8643383E-02
   maximum displ.:     0.3799638 α      in ANC's #23, #28, #40, ...

........................................................................
.............................. CYCLE   26 ..............................
........................................................................

 iter      E             dE          RMSdq      gap      omega  full diag
   1    -80.2108909 -0.802109E+02  0.216E-01    1.50       0.0  T
   2    -80.2114391 -0.548149E-03  0.126E-01    1.39       1.0  T
   3    -80.2114993 -0.601921E-04  0.696E-02    1.34       1.0  T
   4    -80.2115055 -0.624338E-05  0.390E-02    1.33       1.0  T
   5    -80.2115363 -0.307754E-04  0.137E-02    1.34       1.0  T
   6    -80.2115375 -0.124861E-05  0.832E-03    1.34       1.7  T
   7    -80.2115382 -0.613393E-06  0.416E-03    1.35       3.4  T
   8    -80.2115384 -0.234144E-06  0.177E-03    1.35       8.1  T
   9    -80.2115384 -0.263605E-07  0.782E-04    1.35      18.3  T
  10    -80.2115384 -0.433143E-08  0.392E-04    1.35      36.4  T
     SCC iter.                  ...        0 min,  0.098 sec
     gradient                   ...        0 min,  0.094 sec
 * total energy  :   -79.4477284 Eh     change       -0.8662121E-02 Eh
   gradient norm :     0.0633707 Eh/α   predicted    -0.7101066E-02 ( -18.02%)
   displ. norm   :     0.7081394 α      lambda       -0.1646359E-01
   maximum displ.:     0.3067516 α      in ANC's #99, #40, #28, ...

........................................................................
.............................. CYCLE   27 ..............................
........................................................................

 iter      E             dE          RMSdq      gap      omega  full diag
   1    -80.2542873 -0.802543E+02  0.363E-01    1.92       0.0  T
   2    -80.2549578 -0.670550E-03  0.227E-01    1.83       1.0  T
   3    -80.2548768  0.810402E-04  0.146E-01    1.78       1.0  T
   4    -80.2551882 -0.311428E-03  0.480E-02    1.77       1.0  T
   5    -80.2552234 -0.351943E-04  0.212E-02    1.78       1.0  T
   6    -80.2552276 -0.417650E-05  0.120E-02    1.78       1.2  T
   7    -80.2552293 -0.166851E-05  0.548E-03    1.79       2.6  T
   8    -80.2552296 -0.321228E-06  0.259E-03    1.79       5.5  T
   9    -80.2552297 -0.807907E-07  0.106E-03    1.79      13.5  T
  10    -80.2552297 -0.943120E-08  0.544E-04    1.79      26.2  T
  11    -80.2552297 -0.251676E-08  0.218E-04    1.79      65.4  T
     SCC iter.                  ...        0 min,  0.178 sec
     gradient                   ...        0 min,  0.062 sec
 * total energy  :   -79.4420165 Eh     change        0.5711924E-02 Eh
   gradient norm :     0.1670050 Eh/α   predicted    -0.1235972E-01 (-316.38%)
   displ. norm   :     0.2856515 α      lambda       -0.3626092E-01
   maximum displ.:     0.1691286 α      in ANC's #99, #86, #93, ...

........................................................................
.............................. CYCLE   28 ..............................
........................................................................

 iter      E             dE          RMSdq      gap      omega  full diag
   1    -80.2263195 -0.802263E+02  0.256E-01    1.41       0.0  T
   2    -80.2265516 -0.232120E-03  0.159E-01    1.48       1.0  T
   3    -80.2264696  0.819640E-04  0.934E-02    1.52       1.0  T
   4    -80.2266296 -0.159930E-03  0.274E-02    1.53       1.0  T
   5    -80.2266426 -0.129936E-04  0.115E-02    1.52       1.2  T
   6    -80.2266439 -0.134715E-05  0.628E-03    1.52       2.3  T
   7    -80.2266444 -0.457171E-06  0.284E-03    1.52       5.0  T
   8    -80.2266444 -0.824922E-07  0.136E-03    1.52      10.5  T
   9    -80.2266445 -0.254907E-07  0.525E-04    1.52      27.2  T
  10    -80.2266445 -0.234967E-08  0.292E-04    1.52      48.8  T
     SCC iter.                  ...        0 min,  0.085 sec
     gradient                   ...        0 min,  0.095 sec
 * total energy  :   -79.4551904 Eh     change       -0.1317390E-01 Eh
   gradient norm :     0.0635663 Eh/α   predicted    -0.1961028E-01 (  48.86%)
   displ. norm   :     0.5157958 α      lambda       -0.3356363E-02
   maximum displ.:     0.2956267 α      in ANC's #23, #28, #40, ...

........................................................................
.............................. CYCLE   29 ..............................
........................................................................

 iter      E             dE          RMSdq      gap      omega  full diag
   1    -80.2180949 -0.802181E+02  0.118E-01    1.37       0.0  T
   2    -80.2181288 -0.338855E-04  0.693E-02    1.36       1.0  T
   3    -80.2181157  0.130947E-04  0.298E-02    1.35       1.0  T
   4    -80.2181375 -0.218184E-04  0.110E-02    1.36       1.3  T
   5    -80.2181399 -0.235161E-05  0.528E-03    1.36       2.7  T
   6    -80.2181401 -0.196629E-06  0.315E-03    1.36       4.5  T
   7    -80.2181402 -0.828384E-07  0.115E-03    1.36      12.5  T
   8    -80.2181402 -0.165092E-07  0.619E-04    1.36      23.1  T
   9    -80.2181402 -0.223235E-08  0.356E-04    1.36      40.1  T
     SCC iter.                  ...        0 min,  0.206 sec
     gradient                   ...        0 min,  0.061 sec
 * total energy  :   -79.4572643 Eh     change       -0.2073948E-02 Eh
   gradient norm :     0.0603392 Eh/α   predicted    -0.2124653E-02 (   2.44%)
   displ. norm   :     0.5272201 α      lambda       -0.1484542E-01
   maximum displ.:     0.2233501 α      in ANC's #34, #28, #80, ...

........................................................................
.............................. CYCLE   30 ..............................
........................................................................

 iter      E             dE          RMSdq      gap      omega  full diag
   1    -80.2567508 -0.802568E+02  0.266E-01    1.69       0.0  T
   2    -80.2570881 -0.337288E-03  0.170E-01    1.65       1.0  T
   3    -80.2571355 -0.474413E-04  0.106E-01    1.64       1.0  T
   4    -80.2572887 -0.153235E-03  0.292E-02    1.63       1.0  T
   5    -80.2573037 -0.149235E-04  0.124E-02    1.63       1.2  T
   6    -80.2573060 -0.229717E-05  0.655E-03    1.64       2.2  T
   7    -80.2573064 -0.448598E-06  0.364E-03    1.64       3.9  T
   8    -80.2573066 -0.162551E-06  0.176E-03    1.64       8.1  T
   9    -80.2573066 -0.443485E-07  0.691E-04    1.64      20.7  T
  10    -80.2573066 -0.482747E-08  0.322E-04    1.64      44.4  T
     SCC iter.                  ...        0 min,  0.136 sec
     gradient                   ...        0 min,  0.074 sec
 * total energy  :   -79.4587103 Eh     change       -0.1446017E-02 Eh
   gradient norm :     0.0884348 Eh/α   predicted    -0.9485976E-02 ( 556.01%)
   displ. norm   :     0.1961945 α      lambda       -0.1050429E-01
   maximum displ.:     0.0834237 α      in ANC's #65, #40, #80, ...

........................................................................
.............................. CYCLE   31 ..............................
........................................................................

 iter      E             dE          RMSdq      gap      omega  full diag
   1    -80.2468409 -0.802468E+02  0.154E-01    1.47       0.0  T
   2    -80.2469403 -0.993339E-04  0.101E-01    1.50       1.0  T
   3    -80.2469652 -0.249625E-04  0.644E-02    1.51       1.0  T
   4    -80.2470159 -0.506555E-04  0.158E-02    1.51       1.0  T
   5    -80.2470203 -0.441886E-05  0.697E-03    1.51       2.0  T
   6    -80.2470211 -0.762086E-06  0.325E-03    1.51       4.4  T
   7    -80.2470212 -0.829872E-07  0.164E-03    1.51       8.7  T
   8    -80.2470212 -0.400669E-07  0.803E-04    1.51      17.8  T
   9    -80.2470212 -0.877905E-08  0.361E-04    1.51      39.6  T
     SCC iter.                  ...        0 min,  0.139 sec
     gradient                   ...        0 min,  0.083 sec
 * total energy  :   -79.4639849 Eh     change       -0.5274597E-02 Eh
   gradient norm :     0.0243789 Eh/α   predicted    -0.5454338E-02 (   3.41%)
   displ. norm   :     0.3065008 α      lambda       -0.1691818E-02
   maximum displ.:     0.1214197 α      in ANC's #23, #34, #7, ...

........................................................................
.............................. CYCLE   32 ..............................
........................................................................

 iter      E             dE          RMSdq      gap      omega  full diag
   1    -80.2429653 -0.802430E+02  0.757E-02    1.43       0.0  T
   2    -80.2429784 -0.130460E-04  0.470E-02    1.44       1.0  T
   3    -80.2429700  0.839450E-05  0.227E-02    1.44       1.0  T
   4    -80.2429828 -0.128905E-04  0.616E-03    1.44       2.3  T
   5    -80.2429835 -0.688152E-06  0.316E-03    1.44       4.5  T
   6    -80.2429837 -0.125559E-06  0.163E-03    1.44       8.8  T
   7    -80.2429837 -0.141667E-07  0.769E-04    1.44      18.6  T
   8    -80.2429837 -0.832587E-08  0.410E-04    1.44      34.8  T
     SCC iter.                  ...        0 min,  0.191 sec
     gradient                   ...        0 min,  0.098 sec
 * total energy  :   -79.4652138 Eh     change       -0.1228870E-02 Eh
   gradient norm :     0.0153819 Eh/α   predicted    -0.9253933E-03 ( -24.70%)
   displ. norm   :     0.3716234 α      lambda       -0.1533277E-02
   maximum displ.:     0.1557790 α      in ANC's #7, #34, #6, ...

........................................................................
.............................. CYCLE   33 ..............................
........................................................................

 iter      E             dE          RMSdq      gap      omega  full diag
   1    -80.2424392 -0.802424E+02  0.973E-02    1.43       0.0  T
   2    -80.2424516 -0.124288E-04  0.594E-02    1.43       1.0  T
   3    -80.2424520 -0.356897E-06  0.135E-02    1.43       1.1  T
   4    -80.2424560 -0.402149E-05  0.521E-03    1.43       2.7  T
   5    -80.2424561 -0.138747E-06  0.271E-03    1.43       5.3  T
   6    -80.2424562 -0.259574E-07  0.147E-03    1.43       9.7  T
   7    -80.2424562 -0.335795E-07  0.684E-04    1.43      20.9  T
   8    -80.2424562 -0.583201E-08  0.359E-04    1.43      39.8  T
     SCC iter.                  ...        0 min,  0.197 sec
     gradient                   ...        0 min,  0.081 sec
 * total energy  :   -79.4663281 Eh     change       -0.1114314E-02 Eh
   gradient norm :     0.0144176 Eh/α   predicted    -0.8725356E-03 ( -21.70%)
   displ. norm   :     0.5118140 α      lambda       -0.2167479E-02
   maximum displ.:     0.2268297 α      in ANC's #7, #34, #6, ...

........................................................................
.............................. CYCLE   34 ..............................
........................................................................

 iter      E             dE          RMSdq      gap      omega  full diag
   1    -80.2413859 -0.802414E+02  0.200E-01    1.45       0.0  T
   2    -80.2414407 -0.547386E-04  0.125E-01    1.46       1.0  T
   3    -80.2414324  0.832634E-05  0.348E-02    1.46       1.0  T
   4    -80.2414662 -0.338181E-04  0.138E-02    1.46       1.0  T
   5    -80.2414690 -0.279334E-05  0.647E-03    1.47       2.2  T
   6    -80.2414693 -0.358160E-06  0.282E-03    1.47       5.1  T
   7    -80.2414694 -0.517885E-07  0.853E-04    1.47      16.8  T
   8    -80.2414694 -0.582699E-08  0.537E-04    1.47      26.6  T
     SCC iter.                  ...        0 min,  0.109 sec
     gradient                   ...        0 min,  0.070 sec
 * total energy  :   -79.4691444 Eh     change       -0.2816297E-02 Eh
   gradient norm :     0.0376037 Eh/α   predicted    -0.1367669E-02 ( -51.44%)
   displ. norm   :     0.4074827 α      lambda       -0.6990410E-02
   maximum displ.:     0.1261133 α      in ANC's #41, #6, #67, ...

........................................................................
.............................. CYCLE   35 ..............................
........................................................................

 iter      E             dE          RMSdq      gap      omega  full diag
   1    -80.2446854 -0.802447E+02  0.315E-01    1.19       0.0  T
   2    -80.2453387 -0.653332E-03  0.189E-01    1.32       1.0  T
   3    -80.2452730  0.657075E-04  0.110E-01    1.34       1.0  T
   4    -80.2454525 -0.179501E-03  0.377E-02    1.34       1.0  T
   5    -80.2454772 -0.247151E-04  0.110E-02    1.34       1.3  T
   6    -80.2454787 -0.147641E-05  0.580E-03    1.34       2.5  T
   7    -80.2454789 -0.210668E-06  0.244E-03    1.34       5.9  T
   8    -80.2454790 -0.535189E-07  0.850E-04    1.34      16.8  T
   9    -80.2454790 -0.132585E-07  0.420E-04    1.34      34.0  T
     SCC iter.                  ...        0 min,  0.103 sec
     gradient                   ...        0 min,  0.100 sec
 * total energy  :   -79.4769497 Eh     change       -0.7805300E-02 Eh
   gradient norm :     0.0575396 Eh/α   predicted    -0.4075652E-02 ( -47.78%)
   displ. norm   :     0.4001968 α      lambda       -0.9723641E-02
   maximum displ.:     0.1770565 α      in ANC's #32, #41, #7, ...

........................................................................
.............................. CYCLE   36 ..............................
........................................................................

 iter      E             dE          RMSdq      gap      omega  full diag
   1    -80.2018768 -0.802019E+02  0.983E-01    0.83       0.0  T
   2    -80.2299595 -0.280828E-01  0.726E-01    1.65       1.0  T
   3    -80.2463203 -0.163608E-01  0.263E-01    1.22       1.0  T
   4    -80.2479551 -0.163479E-02  0.116E-01    1.09       1.0  T
   5    -80.2478634  0.917718E-04  0.774E-02    1.04       1.0  T
   6    -80.2480688 -0.205424E-03  0.214E-02    1.07       1.0  T
   7    -80.2480871 -0.182800E-04  0.536E-03    1.08       2.7  T
   8    -80.2480873 -0.201540E-06  0.293E-03    1.08       4.9  T
   9    -80.2480874 -0.118303E-06  0.132E-03    1.08      10.8  T
  10    -80.2480874 -0.221343E-07  0.575E-04    1.08      24.8  T
  11    -80.2480874 -0.427058E-08  0.344E-04    1.08      41.5  T
     SCC iter.                  ...        0 min,  0.184 sec
     gradient                   ...        0 min,  0.064 sec
 * total energy  :   -79.4865907 Eh     change       -0.9641001E-02 Eh
   gradient norm :     0.1040085 Eh/α   predicted    -0.5640573E-02 ( -41.49%)
   displ. norm   :     0.9025663 α      lambda       -0.3130234E-01
   maximum displ.:     0.3784571 α      in ANC's #32, #41, #67, ...

........................................................................
.............................. CYCLE   37 ..............................
........................................................................

 iter      E             dE          RMSdq      gap      omega  full diag
   1    -80.0655678 -0.800656E+02  0.222E+00    1.96       0.0  T
   2    -80.0593821  0.618576E-02  0.210E+00    1.30       1.0  T
   3    -80.2017077 -0.142326E+00  0.108E+00    1.04       1.0  T
   4    -80.2434353 -0.417277E-01  0.340E-01    0.78       1.0  T
   5    -80.2352730  0.816234E-02  0.461E-01    0.83       1.0  T
   6    -80.2434983 -0.822525E-02  0.192E-01    0.76       1.0  T
   7    -80.2441156 -0.617385E-03  0.147E-01    0.77       1.0  T
   8    -80.2451427 -0.102710E-02  0.281E-02    0.78       1.0  T
   9    -80.2451420  0.716645E-06  0.232E-02    0.78       1.0  T
  10    -80.2451637 -0.216855E-04  0.468E-03    0.78       3.1  T
  11    -80.2451644 -0.663977E-06  0.128E-03    0.78      11.1  T
  12    -80.2451644 -0.109541E-07  0.636E-04    0.78      22.5  T
  13    -80.2451644 -0.466116E-11  0.496E-04    0.78      28.8  T
     SCC iter.                  ...        0 min,  0.291 sec
     gradient                   ...        0 min,  0.098 sec
 * total energy  :   -79.4926475 Eh     change       -0.6056765E-02 Eh
   gradient norm :     0.2307599 Eh/α   predicted    -0.2840178E-01 ( 368.93%)
   displ. norm   :     0.3806895 α      lambda       -0.2266480E-01
   maximum displ.:     0.1530553 α      in ANC's #41, #67, #34, ...

........................................................................
.............................. CYCLE   38 ..............................
........................................................................

 iter      E             dE          RMSdq      gap      omega  full diag
   1    -80.2118112 -0.802118E+02  0.111E+00    1.20       0.0  T
   2    -80.1510025  0.608087E-01  0.158E+00    1.27       1.0  T
   3    -80.2673331 -0.116331E+00  0.236E-01    0.91       1.0  T
   4    -80.2679368 -0.603703E-03  0.133E-01    0.89       1.0  T
   5    -80.2679471 -0.102595E-04  0.445E-02    0.88       1.0  T
   6    -80.2679711 -0.240632E-04  0.197E-02    0.88       1.0  T
   7    -80.2679790 -0.782500E-05  0.718E-03    0.89       2.0  T
   8    -80.2679798 -0.784507E-06  0.422E-03    0.89       3.4  T
   9    -80.2679798 -0.788251E-07  0.155E-03    0.89       9.2  T
  10    -80.2679799 -0.629808E-07  0.679E-04    0.89      21.0  T
  11    -80.2679799 -0.309957E-08  0.345E-04    0.89      41.5  T
     SCC iter.                  ...        0 min,  0.182 sec
     gradient                   ...        0 min,  0.061 sec
 * total energy  :   -79.5045742 Eh     change       -0.1192671E-01 Eh
   gradient norm :     0.1871402 Eh/α   predicted    -0.1297451E-01 (   8.79%)
   displ. norm   :     0.5557196 α      lambda       -0.1414372E-01
   maximum displ.:     0.3125497 α      in ANC's #32, #41, #28, ...

........................................................................
.............................. CYCLE   39 ..............................
........................................................................

 iter      E             dE          RMSdq      gap      omega  full diag
   1    -80.2329974 -0.802330E+02  0.756E-01    0.89       0.0  T
   2    -80.1760777  0.569196E-01  0.134E+00    1.13       1.0  T
   3    -80.2564137 -0.803359E-01  0.164E-01    0.84       1.0  T
   4    -80.2563806  0.330955E-04  0.101E-01    0.83       1.0  T
   5    -80.2565697 -0.189150E-03  0.208E-02    0.83       1.0  T
   6    -80.2565770 -0.726382E-05  0.117E-02    0.83       1.2  T
   7    -80.2565782 -0.120354E-05  0.583E-03    0.83       2.5  T
   8    -80.2565784 -0.149321E-06  0.288E-03    0.83       5.0  T
   9    -80.2565785 -0.118157E-06  0.149E-03    0.83       9.6  T
  10    -80.2565784  0.246160E-07  0.128E-03    0.83      11.1  T
  11    -80.2565785 -0.681891E-07  0.304E-04    0.83      47.0  T
  12    -80.2565785 -0.329430E-08  0.119E-04    0.83     119.8  T
     SCC iter.                  ...        0 min,  0.189 sec
     gradient                   ...        0 min,  0.094 sec
 * total energy  :   -79.5074141 Eh     change       -0.2839960E-02 Eh
   gradient norm :     0.1896523 Eh/α   predicted    -0.9255907E-02 ( 225.92%)
   displ. norm   :     0.5206541 α      lambda       -0.1829560E-01
   maximum displ.:     0.1995006 α      in ANC's #34, #20, #7, ...

........................................................................
.............................. CYCLE   40 ..............................
........................................................................

 iter      E             dE          RMSdq      gap      omega  full diag
   1    -80.2352379 -0.802352E+02  0.102E+00    1.09       0.0  T
   2    -80.1211600  0.114078E+00  0.186E+00    1.13       1.0  T
   3    -80.2769081 -0.155748E+00  0.254E-01    0.83       1.0  T
   4    -80.2782631 -0.135499E-02  0.120E-01    0.80       1.0  T
   5    -80.2784412 -0.178129E-03  0.324E-02    0.79       1.0  T
   6    -80.2784491 -0.786339E-05  0.178E-02    0.79       1.0  T
   7    -80.2784568 -0.775877E-05  0.598E-03    0.79       2.4  T
   8    -80.2784569 -0.236072E-07  0.406E-03    0.79       3.5  T
   9    -80.2784572 -0.376028E-06  0.859E-04    0.79      16.6  T
  10    -80.2784572 -0.480095E-08  0.525E-04    0.79      27.2  T
     SCC iter.                  ...        0 min,  0.268 sec
     gradient                   ...        0 min,  0.085 sec
 * total energy  :   -79.5224159 Eh     change       -0.1500172E-01 Eh
   gradient norm :     0.1724998 Eh/α   predicted    -0.1162751E-01 ( -22.49%)
   displ. norm   :     0.7470341 α      lambda       -0.2557518E-01
   maximum displ.:     0.3597095 α      in ANC's #32, #53, #61, ...

........................................................................
.............................. CYCLE   41 ..............................
........................................................................

 iter      E             dE          RMSdq      gap      omega  full diag
   1    -80.2643731 -0.802644E+02  0.111E+00    1.54       0.0  T
   2    -80.1332646  0.131108E+00  0.190E+00    0.68       1.0  T
   3    -80.2880017 -0.154737E+00  0.678E-01    1.11       1.0  T
   4    -80.3012047 -0.132030E-01  0.269E-01    0.82       1.0  T
   5    -80.3032418 -0.203710E-02  0.639E-02    0.72       1.0  T
   6    -80.3032388  0.294210E-05  0.523E-02    0.72       1.0  T
   7    -80.3033432 -0.104410E-03  0.119E-02    0.74       1.2  T
   8    -80.3033325  0.107191E-04  0.177E-02    0.74       1.0  T
   9    -80.3033450 -0.124393E-04  0.234E-03    0.74       6.1  T
  10    -80.3033449  0.613743E-07  0.203E-03    0.73       7.0  T
  11    -80.3033451 -0.163901E-06  0.492E-04    0.74      29.0  T
  12    -80.3033451 -0.540379E-08  0.164E-04    0.74      87.0  T
     SCC iter.                  ...        0 min,  0.269 sec
     gradient                   ...        0 min,  0.116 sec
 * total energy  :   -79.5380321 Eh     change       -0.1561620E-01 Eh
   gradient norm :     0.1593966 Eh/α   predicted    -0.1992366E-01 (  27.58%)
   displ. norm   :     0.7104441 α      lambda       -0.1948087E-01
   maximum displ.:     0.2809398 α      in ANC's #32, #34, #20, ...

........................................................................
.............................. CYCLE   42 ..............................
........................................................................

 iter      E             dE          RMSdq      gap      omega  full diag
   1    -80.3095394 -0.803095E+02  0.618E-01    1.28       0.0  T
   2    -80.2893636  0.201758E-01  0.837E-01    0.59       1.0  T
   3    -80.3182666 -0.289030E-01  0.306E-01    1.00       1.0  T
   4    -80.3208844 -0.261781E-02  0.611E-02    0.80       1.0  T
   5    -80.3208656  0.187770E-04  0.364E-02    0.79       1.0  T
   6    -80.3209121 -0.465020E-04  0.132E-02    0.80       1.1  T
   7    -80.3209135 -0.131162E-05  0.820E-03    0.81       1.7  T
   8    -80.3209130  0.493076E-06  0.576E-03    0.81       2.5  T
   9    -80.3209142 -0.119718E-05  0.819E-04    0.81      17.5  T
  10    -80.3209142  0.441813E-08  0.729E-04    0.81      19.6  T
  11    -80.3209142 -0.128819E-07  0.380E-04    0.81      37.6  T
     SCC iter.                  ...        0 min,  1.630 sec
     gradient                   ...        0 min,  0.094 sec
 * total energy  :   -79.5536400 Eh     change       -0.1560796E-01 Eh
   gradient norm :     0.1247261 Eh/α   predicted    -0.1465668E-01 (  -6.09%)
   displ. norm   :     0.6740934 α      lambda       -0.1910184E-01
   maximum displ.:     0.3146898 α      in ANC's #32, #93, #53, ...
 * RMSD in coord.:     0.7713161 α      energy gain  -0.1385024E+00 Eh

generating ANC from exact Hessian ...
Using Lindh-Hessian (1995)
 Shifting diagonal of input Hessian by    1.6603829488359038E-002
 Lowest  eigenvalues of input Hessian
    0.010000    0.016269    0.016482    0.016517    0.000000    0.000000
    0.000000    0.000000    0.000000    0.000000    0.016680    0.016830
    0.016902    0.017054    0.017230    0.017485    0.017528    0.017540
 Highest eigenvalues
    1.855557    1.903126    1.966109    2.069479    2.211791    2.255390


........................................................................
.............................. CYCLE   43 ..............................
........................................................................

 iter      E             dE          RMSdq      gap      omega  full diag
   1    -80.3359280 -0.803359E+02  0.364E-01    1.12       0.0  T
   2    -80.3350901  0.837938E-03  0.312E-01    0.73       1.0  T
   3    -80.3384362 -0.334613E-02  0.152E-01    0.96       1.0  T
   4    -80.3387938 -0.357579E-03  0.351E-02    0.86       1.0  T
   5    -80.3388252 -0.314570E-04  0.158E-02    0.88       1.0  T
   6    -80.3388268 -0.159710E-05  0.108E-02    0.88       1.3  T
   7    -80.3388276 -0.778748E-06  0.272E-03    0.88       5.2  T
   8    -80.3388277 -0.134824E-06  0.993E-04    0.88      14.4  T
   9    -80.3388277 -0.428388E-08  0.516E-04    0.88      27.7  T
     SCC iter.                  ...        0 min,  1.292 sec
     gradient                   ...        0 min,  0.117 sec
 * total energy  :   -79.5670876 Eh     change       -0.1344760E-01 Eh
   gradient norm :     0.0866900 Eh/α   predicted     0.0000000E+00 (-100.00%)
   displ. norm   :     0.5161157 α      lambda       -0.2191655E-01
   maximum displ.:     0.2393109 α      in ANC's #27, #25, #24, ...

........................................................................
.............................. CYCLE   44 ..............................
........................................................................

 iter      E             dE          RMSdq      gap      omega  full diag
   1    -80.3638350 -0.803638E+02  0.273E-01    0.92       0.0  T
   2    -80.3640950 -0.260023E-03  0.156E-01    0.98       1.0  T
   3    -80.3641014 -0.644038E-05  0.534E-02    0.95       1.0  T
   4    -80.3641207 -0.192804E-04  0.153E-02    0.97       1.0  T
   5    -80.3641240 -0.332013E-05  0.778E-03    0.96       1.8  T
   6    -80.3641252 -0.114173E-05  0.418E-03    0.97       3.4  T
   7    -80.3641253 -0.880704E-07  0.183E-03    0.97       7.8  T
   8    -80.3641253 -0.462690E-07  0.981E-04    0.97      14.6  T
   9    -80.3641253 -0.917069E-08  0.471E-04    0.97      30.3  T
     SCC iter.                  ...        0 min,  0.288 sec
     gradient                   ...        0 min,  0.105 sec
 * total energy  :   -79.5839966 Eh     change       -0.1690899E-01 Eh
   gradient norm :     0.0630319 Eh/α   predicted    -0.1388113E-01 ( -17.91%)
   displ. norm   :     0.6495367 α      lambda       -0.2090229E-01
   maximum displ.:     0.3220815 α      in ANC's #1, #49, #66, ...

........................................................................
.............................. CYCLE   45 ..............................
........................................................................

 iter      E             dE          RMSdq      gap      omega  full diag
   1    -80.3885010 -0.803885E+02  0.313E-01    1.14       0.0  T
   2    -80.3898109 -0.130990E-02  0.197E-01    1.44       1.0  T
   3    -80.3898957 -0.848665E-04  0.993E-02    1.38       1.0  T
   4    -80.3899123 -0.166263E-04  0.297E-02    1.41       1.0  T
   5    -80.3899242 -0.118856E-04  0.167E-02    1.40       1.0  T
   6    -80.3899255 -0.129048E-05  0.752E-03    1.40       1.9  T
   7    -80.3899259 -0.402930E-06  0.322E-03    1.40       4.4  T
   8    -80.3899261 -0.128257E-06  0.166E-03    1.40       8.6  T
   9    -80.3899261 -0.210577E-07  0.795E-04    1.40      18.0  T
  10    -80.3899261 -0.493485E-08  0.241E-04    1.40      59.3  T
     SCC iter.                  ...        0 min,  0.698 sec
     gradient                   ...        0 min,  0.118 sec
 * total energy  :   -79.6003330 Eh     change       -0.1633644E-01 Eh
   gradient norm :     0.0511446 Eh/α   predicted    -0.1486065E-01 (  -9.03%)
   displ. norm   :     0.7510551 α      lambda       -0.2031200E-01
   maximum displ.:     0.3392462 α      in ANC's #49, #24, #66, ...

........................................................................
.............................. CYCLE   46 ..............................
[...]
          :  # atomic orbitals                 118          :
          :  # shells                           72          :
          :  # electrons                       134          :
          :  max. iterations                   250          :
          :  Hamiltonian                  GFN2-xTB          :
          :  restarted?                      false          :
          :  GBSA solvation                   true          :
          :  PC potential                    false          :
          :  electronic temp.          300.0000000     K    :
          :  accuracy                    1.0000000          :
          :  -> integral cutoff          0.2500000E+02      :
          :  -> integral neglect         0.1000000E-07      :
          :  -> SCF convergence          0.1000000E-05 Eh   :
          :  -> wf. convergence          0.1000000E-03 e    :
          :  Broyden damping             0.4000000          :
          :  net charge                          2          :
          :  unpaired electrons                  0          :
          ...................................................

 iter      E             dE          RMSdq      gap      omega  full diag
   1    -80.5348516 -0.805349E+02  0.899E-05    3.46       0.0  T
   2    -80.5348516 -0.180762E-10  0.584E-05    3.46     244.5  T
   3    -80.5348516  0.903810E-11  0.307E-05    3.46     465.3  T

   *** convergence criteria satisfied after 3 iterations ***

         #    Occupation            Energy/Eh            Energy/eV
      -------------------------------------------------------------
         1        2.0000           -0.7681427             -20.9022
       ...           ...                  ...                  ...
        61        2.0000           -0.4506502             -12.2628
        62        2.0000           -0.4461319             -12.1399
        63        2.0000           -0.4424533             -12.0398
        64        2.0000           -0.4413639             -12.0101
        65        2.0000           -0.4386647             -11.9367
        66        2.0000           -0.4361466             -11.8682
        67        2.0000           -0.4214445             -11.4681 (HOMO)
        68                         -0.2941250              -8.0035 (LUMO)
        69                         -0.2555215              -6.9531
        70                         -0.2547294              -6.9315
        71                         -0.2213427              -6.0230
        72                         -0.1791248              -4.8742
       ...                                ...                  ...
       118                          1.3109571              35.6730
      -------------------------------------------------------------
                  HL-Gap            0.1273195 Eh            3.4645 eV
             Fermi-level           -0.3577847 Eh           -9.7358 eV

 SCC (total)                   0 d,  0 h,  0 min,  0.595 sec
 SCC setup                      ...        0 min,  0.016 sec (  2.670%)
 Dispersion                     ...        0 min,  0.011 sec (  1.801%)
 classical contributions        ...        0 min,  0.005 sec (  0.868%)
 integral evaluation            ...        0 min,  0.026 sec (  4.334%)
 iterations                     ...        0 min,  0.365 sec ( 61.424%)
 molecular gradient             ...        0 min,  0.156 sec ( 26.146%)
 printout                       ...        0 min,  0.014 sec (  2.380%)

         :::::::::::::::::::::::::::::::::::::::::::::::::::::
         ::                     SUMMARY                     ::
         :::::::::::::::::::::::::::::::::::::::::::::::::::::
         :: total energy             -79.721603568579 Eh    ::
         :: total w/o Gsasa/hb       -79.668959791541 Eh    ::
         :: gradient norm              0.000170292029 Eh/a0 ::
         :: HOMO-LUMO gap              3.464541018890 eV    ::
         ::.................................................::
         :: SCC energy               -80.534274488020 Eh    ::
         :: -> isotropic ES            0.565796221923 Eh    ::
         :: -> anisotropic ES         -0.022437493558 Eh    ::
         :: -> anisotropic XC          0.014581787233 Eh    ::
         :: -> dispersion             -0.043583840042 Eh    ::
         :: -> Gsolv                  -0.340897129555 Eh    ::
         ::    -> Gelec               -0.288253352517 Eh    ::
         ::    -> Gsasa                0.002251747686 Eh    ::
         ::    -> Ghb                 -0.055976284422 Eh    ::
         ::    -> Gshift               0.001080759698 Eh    ::
         :: repulsion energy           0.812670919441 Eh    ::
         :: add. restraining           0.000000000000 Eh    ::
         :: total charge               2.000000000000 e     ::
         :::::::::::::::::::::::::::::::::::::::::::::::::::::

           -------------------------------------------------
          |                Property Printout                |
           -------------------------------------------------

    * Orbital Energies and Occupations

         #    Occupation            Energy/Eh            Energy/eV
      -------------------------------------------------------------
         1        2.0000           -0.7681427             -20.9022
       ...           ...                  ...                  ...
        55        2.0000           -0.4654441             -12.6654
        56        2.0000           -0.4618787             -12.5684
        57        2.0000           -0.4602565             -12.5242
        58        2.0000           -0.4576074             -12.4521
        59        2.0000           -0.4555082             -12.3950
        60        2.0000           -0.4512294             -12.2786
        61        2.0000           -0.4506502             -12.2628
        62        2.0000           -0.4461319             -12.1399
        63        2.0000           -0.4424533             -12.0398
        64        2.0000           -0.4413639             -12.0101
        65        2.0000           -0.4386647             -11.9367
        66        2.0000           -0.4361466             -11.8682
        67        2.0000           -0.4214445             -11.4681 (HOMO)
        68                         -0.2941250              -8.0035 (LUMO)
        69                         -0.2555215              -6.9531
        70                         -0.2547294              -6.9315
        71                         -0.2213427              -6.0230
        72                         -0.1791248              -4.8742
        73                         -0.1242700              -3.3816
        74                         -0.0124900              -0.3399
        75                         -0.0117013              -0.3184
        76                          0.0236003               0.6422
        77                          0.0314052               0.8546
        78                          0.0576809               1.5696
       ...                                ...                  ...
       118                          1.3109571              35.6730
      -------------------------------------------------------------
                  HL-Gap            0.1273195 Eh            3.4645 eV
             Fermi-level           -0.3577847 Eh           -9.7358 eV

     #   Z          covCN         q      C6AA      α(0)
     1   6 C        2.971    -0.009    28.242     8.717
     2   6 C        2.919    -0.026    28.655     8.778
     3   6 C        2.922    -0.020    28.502     8.755
     4   6 C        2.971    -0.014    28.363     8.736
     5   6 C        2.919    -0.024    28.592     8.769
     6   6 C        2.923    -0.025    28.625     8.774
     7   1 H        0.926     0.093     1.848     2.126
     8   1 H        0.926     0.059     2.207     2.323
     9   1 H        0.926     0.059     2.210     2.325
    10   1 H        0.926     0.095     1.834     2.118
    11   6 C        2.771     0.357    20.936     7.494
    12   8 O        1.308    -0.360    20.539     6.094
    13   8 O        1.773    -0.162    16.733     5.524
    14   6 C        3.681     0.048    19.977     6.401
    15   6 C        3.751    -0.150    23.469     6.909
    16   1 H        0.924     0.095     1.830     2.115
    17   1 H        0.924     0.064     2.153     2.295
    18   1 H        0.925     0.066     2.127     2.281
    19   1 H        0.925     0.108     1.710     2.045
    20   1 H        0.925     0.071     2.074     2.252
    21   6 C        2.707     0.364    20.828     7.470
    22   8 O        0.857    -0.480    23.340     6.477
    23   8 O        1.703    -0.272    18.510     5.809
    24   6 C        3.683     0.067    19.651     6.348
    25   6 C        3.751    -0.135    23.154     6.862
    26   1 H        0.924     0.071     2.074     2.252
    27   1 H        0.924     0.078     1.995     2.209
    28   1 H        0.925     0.081     1.973     2.196
    29   1 H        0.925     0.064     2.154     2.295
    30   1 H        0.925     0.064     2.149     2.293
    31  48 Cd       4.130     0.408   192.007    26.597
    32   8 O        2.179    -0.559    24.149     6.637
    33   1 H        0.805     0.389     0.505     1.116
    34   1 H        0.805     0.390     0.504     1.115
    35   8 O        2.224    -0.540    23.699     6.575
    36   1 H        0.805     0.379     0.526     1.139
    37   1 H        0.805     0.385     0.513     1.125
    38   8 O        2.289    -0.526    23.402     6.534
    39   1 H        0.807     0.405     0.475     1.083
    40   1 H        0.805     0.396     0.493     1.102
    41   8 O        2.279    -0.538    23.654     6.569
    42   1 H        0.805     0.402     0.481     1.090
    43   1 H        0.805     0.393     0.497     1.108
    44   8 O        2.166    -0.567    24.325     6.661
    45   1 H        0.804     0.393     0.498     1.108
    46   1 H        0.805     0.380     0.522     1.135
    47   8 O        2.060    -0.578    24.572     6.695
    48   1 H        0.805     0.378     0.526     1.140
    49   1 H        0.805     0.381     0.521     1.133

 Mol. C6AA /au·bohr⁶  :      22019.012518
 Mol. C8AA /au·bohr⁸  :     579418.143561
 Mol. α(0) /au        :        228.701361


Wiberg/Mayer (AO) data.
largest (>0.10) Wiberg bond orders for each atom

 ---------------------------------------------------------------------------
     #   Z sym  total        # sym  WBO       # sym  WBO       # sym  WBO
 ---------------------------------------------------------------------------
     1   6 C    3.986 --     6 C    1.389     2 C    1.388    11 C    0.992
                             4 C    0.101
     2   6 C    3.984 --     3 C    1.450     1 C    1.388     7 H    0.960
                             5 C    0.107
     3   6 C    3.987 --     2 C    1.450     4 C    1.396     8 H    0.967
                             6 C    0.108
     4   6 C    3.985 --     3 C    1.396     5 C    1.392    21 C    0.967
                             1 C    0.101
     5   6 C    3.988 --     6 C    1.451     4 C    1.392     9 H    0.967
                             2 C    0.107
     6   6 C    3.984 --     5 C    1.451     1 C    1.389    10 H    0.961
                             3 C    0.108
     7   1 H    0.991 --     2 C    0.960
     8   1 H    0.996 --     3 C    0.967
     9   1 H    0.996 --     5 C    0.967
    10   1 H    0.990 --     6 C    0.961
    11   6 C    3.921 --    12 O    1.614    13 O    1.213     1 C    0.992
    12   8 O    2.177 --    11 C    1.614    31 Cd   0.203    13 O    0.171
    13   8 O    2.486 --    11 C    1.213    14 C    0.912    12 O    0.171
    14   6 C    3.900 --    15 C    1.014    17 H    0.967    16 H    0.958
                            13 O    0.912
    15   6 C    3.978 --    14 C    1.014    20 H    0.983    18 H    0.979
                            19 H    0.968
    16   1 H    0.991 --    14 C    0.958
    17   1 H    0.996 --    14 C    0.967
    18   1 H    0.994 --    15 C    0.979
    19   1 H    0.988 --    15 C    0.968
    20   1 H    0.995 --    15 C    0.983
    21   6 C    3.897 --    22 O    1.680    23 O    1.174     4 C    0.967
    22   8 O    1.980 --    21 C    1.680    23 O    0.167
    23   8 O    2.331 --    21 C    1.174    24 C    0.911    22 O    0.167
    24   6 C    3.899 --    25 C    1.016    26 H    0.965    27 H    0.965
                            23 O    0.911
    25   6 C    3.985 --    24 C    1.016    29 H    0.985    30 H    0.984
                            28 H    0.978
    26   1 H    0.995 --    24 C    0.965
    27   1 H    0.994 --    24 C    0.965
    28   1 H    0.992 --    25 C    0.978
    29   1 H    0.996 --    25 C    0.985
    30   1 H    0.996 --    25 C    0.984
    31  48 Cd   2.207 --    38 O    0.348    41 O    0.330    35 O    0.293
                            32 O    0.287    44 O    0.271    47 O    0.244
                            12 O    0.203
    32   8 O    2.070 --    33 H    0.839    34 H    0.839    31 Cd   0.287
    33   1 H    0.848 --    32 O    0.839
    34   1 H    0.848 --    32 O    0.839
    35   8 O    2.089 --    36 H    0.846    37 H    0.842    31 Cd   0.293
    36   1 H    0.857 --    35 O    0.846
    37   1 H    0.852 --    35 O    0.842
    38   8 O    2.137 --    40 H    0.833    39 H    0.824    31 Cd   0.348
    39   1 H    0.836 --    38 O    0.824
    40   1 H    0.843 --    38 O    0.833
    41   8 O    2.115 --    43 H    0.835    42 H    0.828    31 Cd   0.330
    42   1 H    0.838 --    41 O    0.828
    43   1 H    0.845 --    41 O    0.835
    44   8 O    2.055 --    46 H    0.848    45 H    0.837    31 Cd   0.271
    45   1 H    0.846 --    44 O    0.837
    46   1 H    0.855 --    44 O    0.848
    47   8 O    2.025 --    48 H    0.848    49 H    0.844    31 Cd   0.244
    48   1 H    0.857 --    47 O    0.848
    49   1 H    0.855 --    47 O    0.844
 ---------------------------------------------------------------------------

Topologies differ in total number of bonds
Writing topology from bond orders to xtbtopo.mol

molecular dipole:
                 x           y           z       tot (Debye)
 q only:       24.067      -1.656       2.704
   full:       23.737      -1.918       2.544      60.873
molecular quadrupole (traceless):
                xx          xy          yy          xz          yz          zz
 q only:      251.334       7.668    -121.138      29.098       0.826    -130.195
  q+dip:      250.716       1.802    -125.588      29.295       5.599    -125.128
   full:      248.460       2.097    -124.178      28.623       3.147    -124.282

           -------------------------------------------------
          |                Geometry Summary                 |
           -------------------------------------------------

      molecular mass/u    :      442.7408973
   center of mass at/Å    :        3.2007845      -0.0270911       0.0733064
  moments of inertia/u·Å² :        0.1174236E+04   0.6293448E+04   0.6800330E+04
rotational constants/cm⁻¹ :        0.1435625E-01   0.2678600E-02   0.2478943E-02

 * 43 selected distances

     #   Z          #   Z                                           value/Å
     1   6 C        2   6 C                                       1.3936320
     2   6 C        3   6 C                                       1.3822308
     3   6 C        4   6 C                                       1.3919107
     4   6 C        5   6 C                                       1.3930421
     1   6 C        6   6 C                                       1.3935326
     5   6 C        6   6 C                                       1.3817486
     2   6 C        7   1 H                                       1.0777253
     3   6 C        8   1 H                                       1.0787428
     5   6 C        9   1 H                                       1.0788165
     6   6 C       10   1 H                                       1.0778309
    11   6 C       12   8 O                                       1.2234934
    11   6 C       13   8 O                                       1.3098638
    13   8 O       14   6 C                                       1.4364645
    14   6 C       15   6 C                                       1.5209137
    14   6 C       16   1 H                                       1.0920533
Note: The following floating-point exceptions are signalling: IEEE_UNDERFLOW_FLAG IEEE_DENORMAL
normal termination of xtb
    14   6 C       17   1 H                                       1.0919542
    15   6 C       18   1 H                                       1.0852828
    15   6 C       19   1 H                                       1.0858598
    15   6 C       20   1 H                                       1.0857878
    21   6 C       22   8 O                                       1.2164465
    21   6 C       23   8 O                                       1.3227854
    23   8 O       24   6 C                                       1.4375679
    24   6 C       25   6 C                                       1.5202586
    24   6 C       26   1 H                                       1.0924992
    24   6 C       27   1 H                                       1.0935105
    25   6 C       28   1 H                                       1.0850545
    25   6 C       29   1 H                                       1.0864824
    25   6 C       30   1 H                                       1.0861253
    32   8 O       33   1 H                                       0.9668062
    32   8 O       34   1 H                                       0.9670851
    31  48 Cd      35   8 O                                       2.2614199 (max)
    35   8 O       36   1 H                                       0.9673692
    35   8 O       37   1 H                                       0.9658518
    31  48 Cd      38   8 O                                       2.1621186
    38   8 O       39   1 H                                       0.9706762
    38   8 O       40   1 H                                       0.9679416
    31  48 Cd      41   8 O                                       2.1817564
    41   8 O       42   1 H                                       0.9681181
    41   8 O       43   1 H                                       0.9682387
    44   8 O       45   1 H                                       0.9689339
    44   8 O       46   1 H                                       0.9664297
    47   8 O       48   1 H                                       0.9644552 (min)
    47   8 O       49   1 H                                       0.9660150

 * 5 distinct bonds (by element types)

   Z      Z             #   av. dist./Å        max./Å        min./Å
   1 H    6 C          14     1.0855518     1.0935105     1.0777253
   6 C    6 C           8     1.4221586     1.5209137     1.3817486
   1 H    8 O          12     0.9673267     0.9706762     0.9644552
   6 C    8 O           6     1.3244369     1.4375679     1.2164465
   8 O   48 Cd          3     2.2017650     2.2614199     2.1621186


optimized geometry written to: xtbopt.xyz


           -------------------------------------------------
          | TOTAL ENERGY              -79.721603568579 Eh   |
          | GRADIENT NORM               0.000170292029 Eh/α |
          | HOMO-LUMO GAP               3.464541018890 eV   |
           -------------------------------------------------

------------------------------------------------------------------------
 * finished run on 2026/05/26 at 02:18:47.676     
------------------------------------------------------------------------
 total:
 * wall-time:     0 d,  0 h,  1 min,  3.873 sec
 *  cpu-time:     0 d,  0 h,  1 min, 44.926 sec
 * ratio c/w:     1.643 speedup
 SCF:
 * wall-time:     0 d,  0 h,  0 min,  2.004 sec
 *  cpu-time:     0 d,  0 h,  0 min,  2.262 sec
 * ratio c/w:     1.128 speedup
 ANC optimizer:
 * wall-time:     0 d,  0 h,  1 min,  1.787 sec
 *  cpu-time:     0 d,  0 h,  1 min, 42.576 sec
 * ratio c/w:     1.660 speedup

