      -----------------------------------------------------------      
     |                   =====================                   |     
     |                           x T B                           |     
     |                   =====================                   |     
     |                         S. Grimme                         |     
     |          Mulliken Center for Theoretical Chemistry        |     
     |                    University of Bonn                     |     
      -----------------------------------------------------------      

   * xtb version 6.7.1 (edcfbbe) compiled by 'conda@c0858423619e' on 2025-09-04

   xtb is free software: you can redistribute it and/or modify it under
   the terms of the GNU Lesser General Public License as published by
   the Free Software Foundation, either version 3 of the License, or
   (at your option) any later version.
   
   xtb is distributed in the hope that it will be useful,
   but WITHOUT ANY WARRANTY; without even the implied warranty of
   MERCHANTABILITY or FITNESS FOR A PARTICULAR PURPOSE.  See the
   GNU Lesser General Public License for more details.
   
   Cite this work as:
   * C. Bannwarth, E. Caldeweyher, S. Ehlert, A. Hansen, P. Pracht,
     J. Seibert, S. Spicher, S. Grimme, WIREs Comput. Mol. Sci., 2020, 11,
     e01493. DOI: 10.1002/wcms.1493
   
   for GFN2-xTB:
   * C. Bannwarth, S. Ehlert and S. Grimme., J. Chem. Theory Comput., 2019,
     15, 1652-1671. DOI: 10.1021/acs.jctc.8b01176
   for GFN1-xTB:
   * S. Grimme, C. Bannwarth, P. Shushkov, J. Chem. Theory Comput., 2017,
     13, 1989-2009. DOI: 10.1021/acs.jctc.7b00118
   for GFN0-xTB:
   * P. Pracht, E. Caldeweyher, S. Ehlert, S. Grimme, ChemRxiv, 2019, preprint.
     DOI: 10.26434/chemrxiv.8326202.v1
   for GFN-FF:
   * S. Spicher and S. Grimme, Angew. Chem. Int. Ed., 2020, 59, 15665-15673.
     DOI: 10.1002/anie.202004239
   
   for ALPB and GBSA implicit solvation:
   * S. Ehlert, M. Stahn, S. Spicher, S. Grimme, J. Chem. Theory Comput.,
     2021, 17, 4250-4261. DOI: 10.1021/acs.jctc.1c00471
   
   for ddCOSMO and CPCM-X implicit solvation:
   * M. Stahn, S. Ehlert, S. Grimme, J. Phys. Chem. A,
     2023, XX, XXXX-XXXX. DOI: 10.1021/acs.jpca.3c04382
   
   for DFT-D4:
   * E. Caldeweyher, C. Bannwarth and S. Grimme, J. Chem. Phys., 2017,
     147, 034112. DOI: 10.1063/1.4993215
   * E. Caldeweyher, S. Ehlert, A. Hansen, H. Neugebauer, S. Spicher,
     C. Bannwarth and S. Grimme, J. Chem. Phys., 2019, 150, 154122.
     DOI: 10.1063/1.5090222
   * E. Caldeweyher, J.-M. Mewes, S. Ehlert and S. Grimme, Phys. Chem. Chem. Phys.
     2020, 22, 8499-8512. DOI: 10.1039/D0CP00502A
   
   for sTDA-xTB:
   * S. Grimme and C. Bannwarth, J. Chem. Phys., 2016, 145, 054103.
     DOI: 10.1063/1.4959605
   
   in the mass-spec context:
   * V. Asgeirsson, C. Bauer and S. Grimme, Chem. Sci., 2017, 8, 4879.
     DOI: 10.1039/c7sc00601b
   * J. Koopman and S. Grimme, ACS Omega 2019, 4, 12, 15120-15133.
     DOI: 10.1021/acsomega.9b02011
   
   for metadynamics refer to:
   * S. Grimme, J. Chem. Theory Comput., 2019, 155, 2847-2862
     DOI: 10.1021/acs.jctc.9b00143
   
   for SPH calculations refer to:
   * S. Spicher and S. Grimme, J. Chem. Theory Comput., 2021, 17, 1701-1714
     DOI: 10.1021/acs.jctc.0c01306
   
   for ONIOM refer to:
   * C. Plett, A. Katbashev, S. Ehlert, S. Grimme, M. Bursch,
     Phys. Chem. Chem. Phys., 2023, 25, 17860-17868. DOI: 10.1039/D3CP02178E
   
   for DIPRO refer to:
   * J. Kohn, N. Gildemeister, S. Grimme, D. Fazzi, A. Hansen,
     J. Chem. Phys., 2023, just accepted.
   
   for PTB refer to:
   * S. Grimme, M. Mueller, A. Hansen, J. Chem. Phys., 2023, 158, 124111.
     DOI: 10.1063/5.0137838
   
   with help from (in alphabetical order)
   P. Atkinson, C. Bannwarth, F. Bohle, G. Brandenburg, E. Caldeweyher
   M. Checinski, S. Dohm, S. Ehlert, S. Ehrlich, I. Gerasimov, C. Hölzer
   A. Katbashev, J. Kohn, J. Koopman, C. Lavigne, S. Lehtola, F. März, M. Müller,
   F. Musil, H. Neugebauer, J. Pisarek, C. Plett, P. Pracht, F. Pultar,
   J. Seibert, P. Shushkov, S. Spicher, M. Stahn, M. Steiner, T. Strunk,
   J. Stückrath, T. Rose, and J. Unsleber
   
 * started run on 2026/05/26 at 02:18:47.758     
   ID    Z sym.   atoms
    1    6 C      1-6, 11, 14, 15, 21, 24, 25
    2    1 H      7-10, 16-20, 26-30, 33, 34, 36, 37, 39, 40, 42, 43, 45, 46,
                  48, 49
    3    8 O      12, 13, 22, 23, 32, 35, 38, 41, 44, 47
    4   48 Cd     31

           -------------------------------------------------
          |                Calculation Setup                |
           -------------------------------------------------

          program call               : /content/xtb_env/bin/xtb input.xyz --gfn 2 --opt tight --alpb water --chrg 2 --uhf 0
          hostname                   : 01035569fb61
          coordinate file            : input.xyz
          omp threads                :                     2


molecular fragmentation (1/2 indicates fragments):
1111111111111111111111111111111111111111111222222
# atoms in fragment 1/2:    43     6
 fragment masses (1/2) :      406.71       36.03
CMA distance (Bohr)    :   6.092
constraining FC (au)   :  0.0500

           -------------------------------------------------
          |                 G F N 2 - x T B                 |
           -------------------------------------------------

        Reference                      10.1021/acs.jctc.8b01176
      * Hamiltonian:
        H0-scaling (s, p, d)           1.850000    2.230000    2.230000
        zeta-weighting                 0.500000
      * Dispersion:
        s8                             2.700000
        a1                             0.520000
        a2                             5.000000
        s9                             5.000000
      * Repulsion:
        kExp                           1.500000    1.000000
        rExp                           1.000000
      * Coulomb:
        alpha                          2.000000
        third order                    shell-resolved
        anisotropic                    true
        a3                             3.000000
        a5                             4.000000
        cn-shift                       1.200000
        cn-exp                         4.000000
        max-rad                        5.000000

      * Solvation model:               ALPB
        Solvent                        water
        Parameter file                 internal GFN2-xTB/ALPB
        Dielectric constant                8.0200E+01
        Reference state                gsolv [1 M gas/solution]
        Free energy shift                  1.0808E-03 Eh       6.7819E-01 kcal/mol
        Temperature                        2.9815E+02 K
        Density                            1.0000E+00 kg/L
        Solvent mass                       1.8000E+01 g/mol
        Interaction kernel             P16
        Born radius scaling (c1)           1.4744E+00
        Born radii integrator          GBOBC
        Born offset                        0.0000E+00 a0       0.0000E+00 AA
        H-bond correction              true
        Ion screening                  false
        Surface tension                    1.0000E-05 Eh       1.5569E+01 dyn/cm
        Grid points                               230 per atom

          ...................................................
          :                      SETUP                      :
          :.................................................:
          :  # basis functions                 118          :
          :  # atomic orbitals                 118          :
          :  # shells                           72          :
          :  # electrons                       134          :
          :  max. iterations                   250          :
          :  Hamiltonian                  GFN2-xTB          :
          :  restarted?                      false          :
          :  GBSA solvation                   true          :
          :  PC potential                    false          :
          :  electronic temp.          300.0000000     K    :
          :  accuracy                    1.0000000          :
          :  -> integral cutoff          0.2500000E+02      :
          :  -> integral neglect         0.1000000E-07      :
          :  -> SCF convergence          0.1000000E-05 Eh   :
          :  -> wf. convergence          0.1000000E-03 e    :
          :  Broyden damping             0.4000000          :
          :  net charge                          2          :
          :  unpaired electrons                  0          :
          ...................................................

 iter      E             dE          RMSdq      gap      omega  full diag
   1    -74.8570637 -0.748571E+02  0.793E+00    0.00       0.0  T
   2    -76.9194607 -0.206240E+01  0.612E+00    0.57       1.0  T
   3    -77.3910752 -0.471614E+00  0.368E+00    0.54       1.0  T
   4    -77.0945294  0.296546E+00  0.349E+00    0.54       1.0  T
   5    -77.4450898 -0.350560E+00  0.155E+00    0.19       1.0  T
   6    -77.4627219 -0.176322E-01  0.108E+00    0.47       1.0  T
   7    -77.4654772 -0.275528E-02  0.848E-01    0.68       1.0  T
   8    -77.4682018 -0.272459E-02  0.507E-01    0.88       1.0  T
   9    -77.4220248  0.461770E-01  0.128E+00    0.16       1.0  T
  10    -77.4705928 -0.485680E-01  0.134E-01    0.92       1.0  T
  11    -77.4705732  0.195533E-04  0.125E-01    0.91       1.0  T
  12    -77.4708248 -0.251571E-03  0.856E-02    0.85       1.0  T
  13    -77.4709536 -0.128799E-03  0.560E-02    0.81       1.0  T
  14    -77.4710173 -0.637220E-04  0.372E-02    0.77       1.0  T
  15    -77.4710683 -0.510436E-04  0.935E-03    0.71       1.5  T
  16    -77.4710607  0.760663E-05  0.149E-02    0.69       1.0  T
  17    -77.4710657 -0.491829E-05  0.964E-03    0.70       1.5  T
  18    -77.4710686 -0.297236E-05  0.346E-03    0.71       4.1  T
  19    -77.4710690 -0.385528E-06  0.990E-04    0.72      14.4  T
  20    -77.4710690  0.132097E-07  0.104E-03    0.72      13.7  T
  21    -77.4710690 -0.439621E-07  0.260E-04    0.72      55.0  T

   *** convergence criteria satisfied after 21 iterations ***

         #    Occupation            Energy/Eh            Energy/eV
      -------------------------------------------------------------
         1        2.0000           -1.1979180             -32.5970
       ...           ...                  ...                  ...
        61        2.0000           -0.3520054              -9.5786
        62        2.0000           -0.3436886              -9.3522
        63        2.0000           -0.2792097              -7.5977
        64        2.0000           -0.2632564              -7.1636
        65        2.0000           -0.2535070              -6.8983
        66        2.0000           -0.2345718              -6.3830
        67        2.0000           -0.2288706              -6.2279 (HOMO)
        68        0.0000           -0.2024668              -5.5094 (LUMO)
        69                         -0.1956584              -5.3241
        70                         -0.1874288              -5.1002
        71                         -0.1191423              -3.2420
        72                         -0.1013065              -2.7567
       ...                                ...                  ...
       118                         73.3361969            1995.5795
      -------------------------------------------------------------
                  HL-Gap            0.0264038 Eh            0.7185 eV
             Fermi-level           -0.2156679 Eh           -5.8686 eV

 SCC (total)                   0 d,  0 h,  0 min,  1.609 sec
 SCC setup                      ...        0 min,  0.014 sec (  0.854%)
 Dispersion                     ...        0 min,  0.003 sec (  0.178%)
 classical contributions        ...        0 min,  0.000 sec (  0.013%)
 integral evaluation            ...        0 min,  0.034 sec (  2.090%)
 iterations                     ...        0 min,  1.440 sec ( 89.498%)
 molecular gradient             ...        0 min,  0.110 sec (  6.854%)
 printout                       ...        0 min,  0.008 sec (  0.510%)

         :::::::::::::::::::::::::::::::::::::::::::::::::::::
         ::                     SUMMARY                     ::
         :::::::::::::::::::::::::::::::::::::::::::::::::::::
         :: total energy              14.600959968064 Eh    ::
         :: total w/o Gsasa/hb        14.678529886184 Eh    ::
         :: gradient norm            310.700128736800 Eh/a0 ::
         :: HOMO-LUMO gap              0.718483140655 eV    ::
         ::.................................................::
         :: SCC energy               -77.471237306694 Eh    ::
         :: -> isotropic ES            1.075770655415 Eh    ::
         :: -> anisotropic ES          0.024793449717 Eh    ::
         :: -> anisotropic XC          0.030039557975 Eh    ::
         :: -> dispersion             -0.081232103408 Eh    ::
         :: -> Gsolv                  -0.552613035797 Eh    ::
         ::    -> Gelec               -0.475043117677 Eh    ::
         ::    -> Gsasa                0.000784968580 Eh    ::
         ::    -> Ghb                 -0.079435646397 Eh    ::
         ::    -> Gshift               0.001080759698 Eh    ::
         :: repulsion energy          92.072197274758 Eh    ::
         :: add. restraining           0.000000000000 Eh    ::
         :: total charge               1.999999999965 e     ::
         :::::::::::::::::::::::::::::::::::::::::::::::::::::

      ----------------------------------------------------------- 
     |                   =====================                   |
     |                        A N C O P T                        |
     |                   =====================                   |
     |               Approximate Normal Coordinate               |
     |                Rational Function Optimizer                |
      ----------------------------------------------------------- 
      ----------------------------------------------------------- 
     |                   =====================                   |
     |                        A N C O P T                        |
     |                   =====================                   |
     |               Approximate Normal Coordinate               |
     |                Rational Function Optimizer                |
      ----------------------------------------------------------- 

          ...................................................
          :                      SETUP                      :
          :.................................................:
          :   optimization level             tight          :
          :   max. optcycles                   245          :
          :   ANC micro-cycles                  20          :
          :   degrees of freedom               141          :
          :.................................................:
          :   RF solver                   davidson          :
          :   write xtbopt.log                true          :
          :   linear?                        false          :
          :   energy convergence         0.1000000E-05 Eh   :
          :   grad. convergence          0.8000000E-03 Eh/α :
          :   maxmium RF displ.          1.0000000          :
          :   Hlow (freq-cutoff)         0.1000000E-01      :
          :   Hmax (freq-cutoff)         5.0000000          :
          :   S6 in model hess.         20.0000000          :
          ...................................................

generating ANC from exact Hessian ...
Using Lindh-Hessian (1995)
 Shifting diagonal of input Hessian by    9.9441399227843934E-003
 Lowest  eigenvalues of input Hessian
    0.000000    0.000000    0.000000    0.000000    0.000000    0.000000
    0.010000    0.010600    0.011024    0.011173    0.011841    0.011998
    0.013033    0.013333    0.014110    0.014703    0.015204    0.016585
 Highest eigenvalues
   15.161096   23.253399   71.543844   93.783629  152.267399  271.487510


........................................................................
.............................. CYCLE    1 ..............................
........................................................................

 iter      E             dE          RMSdq      gap      omega  full diag
   1    -77.4710690 -0.774711E+02  0.126E-04    0.72       0.0  T
   2    -77.4710690  0.616751E-10  0.101E-04    0.72     141.1  T
   3    -77.4710690 -0.204125E-09  0.618E-05    0.72     231.0  T
     SCC iter.                  ...        0 min,  0.135 sec
     gradient                   ...        0 min,  0.146 sec
 * total energy  :    14.6009600 Eh     change       -0.2413259E-08 Eh
   gradient norm :   310.7001573 Eh/α   predicted     0.0000000E+00 (-100.00%)
   displ. norm   :     0.9920088 α      lambda       -0.3016313E+03
   maximum displ.:     0.6824380 α      in ANC's #136, #137, #135, ...

........................................................................
.............................. CYCLE    2 ..............................
........................................................................

 iter      E             dE          RMSdq      gap      omega  full diag
   1    -77.4210638 -0.774211E+02  0.446E+00    0.08       0.0  T
   2    -77.3515464  0.695174E-01  0.343E+00    1.07       1.0  T
   3    -77.3274292  0.241172E-01  0.292E+00    0.33       1.0  T
   4    -77.5314780 -0.204049E+00  0.215E+00    0.57       1.0  T
   5    -77.6124765 -0.809985E-01  0.127E+00    0.01       1.0  T
   6    -77.5073393  0.105137E+00  0.187E+00    0.08       1.0  T
   7    -77.5986519 -0.913125E-01  0.114E+00    0.23       1.0  T
   8    -77.6256147 -0.269628E-01  0.728E-01    0.01       1.0  T
   9    -77.6404266 -0.148119E-01  0.332E-01    0.04       1.0  T
  10    -77.6427416 -0.231499E-02  0.156E-01    0.03       1.0  T
  11    -77.6408157  0.192591E-02  0.238E-01    0.02       1.0  T
  12    -77.6425105 -0.169480E-02  0.129E-01    0.04       1.0  T
  13    -77.6431077 -0.597270E-03  0.466E-02    0.04       1.0  T
  14    -77.6431879 -0.801209E-04  0.754E-03    0.04       1.9  T
  15    -77.6431888 -0.974466E-06  0.472E-03    0.04       3.0  T
  16    -77.6431877  0.113549E-05  0.698E-03    0.04       2.0  T
  17    -77.6431889 -0.121756E-05  0.382E-03    0.04       3.7  T
  18    -77.6431894 -0.495850E-06  0.145E-03    0.04       9.8  T
  19    -77.6431895 -0.693348E-07  0.631E-04    0.04      22.6  T
  20    -77.6431895 -0.154430E-07  0.897E-05    0.04     159.3  T
     SCC iter.                  ...        0 min,  0.343 sec
     gradient                   ...        0 min,  0.061 sec
 * total energy  :   -66.8943042 Eh     change       -0.8149526E+02 Eh
   gradient norm :    23.9222437 Eh/α   predicted    -0.3057641E+03 ( 275.19%)
   displ. norm   :     0.8812919 α      lambda       -0.1845325E+02
   maximum displ.:     0.5115206 α      in ANC's #135, #132, #131, ...

........................................................................
.............................. CYCLE    3 ..............................
........................................................................

 iter      E             dE          RMSdq      gap      omega  full diag
   1    -77.4598262 -0.774598E+02  0.218E+00    1.15       0.0  T
   2    -77.5151028 -0.552767E-01  0.118E+00    1.19       1.0  T
   3    -77.5373459 -0.222430E-01  0.986E-01    0.70       1.0  T
   4    -77.5526877 -0.153418E-01  0.388E-01    0.73       1.0  T
   5    -77.5523049  0.382726E-03  0.180E-01    0.71       1.0  T
   6    -77.5535692 -0.126429E-02  0.345E-02    0.71       1.0  T
   7    -77.5535754 -0.613803E-05  0.136E-02    0.72       1.0  T
   8    -77.5535768 -0.141527E-05  0.708E-03    0.72       2.0  T
   9    -77.5535772 -0.407377E-06  0.397E-03    0.72       3.6  T
  10    -77.5535774 -0.231593E-06  0.190E-03    0.72       7.5  T
  11    -77.5535775 -0.417504E-07  0.878E-04    0.72      16.3  T
  12    -77.5535775 -0.364814E-08  0.341E-04    0.72      41.9  T
     SCC iter.                  ...        0 min,  0.277 sec
     gradient                   ...        0 min,  0.108 sec
 * total energy  :   -73.3257598 Eh     change       -0.6431456E+01 Eh
   gradient norm :     9.0265644 Eh/α   predicted    -0.1639274E+02 ( 154.88%)
   displ. norm   :     0.6563630 α      lambda       -0.2636597E+01
   maximum displ.:     0.2745990 α      in ANC's #131, #136, #137, ...

........................................................................
.............................. CYCLE    4 ..............................
........................................................................

 iter      E             dE          RMSdq      gap      omega  full diag
   1    -78.0363254 -0.780363E+02  0.224E+00    0.19       0.0  T
   2    -78.1515806 -0.115255E+00  0.133E+00    0.85       1.0  T
   3    -78.1935446 -0.419639E-01  0.593E-01    0.84       1.0  T
   4    -78.1936459 -0.101359E-03  0.346E-01    0.80       1.0  T
   5    -78.1959568 -0.231091E-02  0.147E-01    0.82       1.0  T
   6    -78.1960799 -0.123062E-03  0.753E-02    0.83       1.0  T
   7    -78.1961405 -0.606222E-04  0.405E-02    0.83       1.0  T
   8    -78.1961494 -0.889944E-05  0.159E-02    0.83       1.0  T
   9    -78.1961504 -0.963054E-06  0.536E-03    0.83       2.7  T
  10    -78.1961506 -0.243979E-06  0.221E-03    0.83       6.5  T
  11    -78.1961506 -0.262263E-07  0.100E-03    0.83      14.2  T
  12    -78.1961506 -0.583233E-08  0.341E-04    0.83      41.9  T
  13    -78.1961506 -0.756557E-09  0.156E-04    0.83      91.5  T
     SCC iter.                  ...        0 min,  0.134 sec
     gradient                   ...        0 min,  0.056 sec
 * total energy  :   -75.1274795 Eh     change       -0.1801720E+01 Eh
   gradient norm :     6.0554261 Eh/α   predicted    -0.1886237E+01 (   4.69%)
   displ. norm   :     0.8113186 α      lambda       -0.3057220E+01
   maximum displ.:     0.6278647 α      in ANC's #131, #93, #69, ...

........................................................................
.............................. CYCLE    5 ..............................
........................................................................

 iter      E             dE          RMSdq      gap      omega  full diag
   1    -78.0189545 -0.780190E+02  0.374E+00    0.20       0.0  T
   2    -78.4175773 -0.398623E+00  0.255E+00    1.09       1.0  T
   3    -78.5792257 -0.161648E+00  0.135E+00    1.38       1.0  T
   4    -78.6011202 -0.218944E-01  0.895E-01    1.15       1.0  T
   5    -78.6118810 -0.107608E-01  0.603E-01    1.04       1.0  T
   6    -78.6159189 -0.403796E-02  0.265E-01    0.48       1.0  T
   7    -78.6162576 -0.338659E-03  0.138E-01    0.17       1.0  T
   8    -78.6167497 -0.492158E-03  0.359E-02    0.23       1.0  T
   9    -78.6167429  0.684028E-05  0.267E-02    0.25       1.0  T
  10    -78.6167582 -0.152596E-04  0.956E-03    0.23       1.5  T
  11    -78.6167596 -0.147702E-05  0.406E-03    0.23       3.5  T
  12    -78.6167600 -0.321763E-06  0.151E-03    0.23       9.5  T
  13    -78.6167600 -0.472503E-07  0.632E-04    0.23      22.6  T
  14    -78.6167600 -0.776227E-08  0.186E-04    0.23      76.8  T
     SCC iter.                  ...        0 min,  0.133 sec
     gradient                   ...        0 min,  0.060 sec
 * total energy  :   -76.7935513 Eh     change       -0.1666072E+01 Eh
   gradient norm :     1.6283446 Eh/α   predicted    -0.2534800E+01 (  52.14%)
   displ. norm   :     0.6531582 α      lambda       -0.6239513E+00
   maximum displ.:     0.2377050 α      in ANC's #69, #57, #54, ...

........................................................................
.............................. CYCLE    6 ..............................
........................................................................

 iter      E             dE          RMSdq      gap      omega  full diag
   1    -78.3437305 -0.783437E+02  0.358E+00    0.14       0.0  T
   2    -78.6697766 -0.326046E+00  0.244E+00    1.37       1.0  T
   3    -78.8294950 -0.159718E+00  0.119E+00    1.27       1.0  T
   4    -78.8506051 -0.211101E-01  0.790E-01    1.23       1.0  T
   5    -78.8571014 -0.649637E-02  0.604E-01    1.05       1.0  T
   6    -78.8612785 -0.417705E-02  0.358E-01    0.62       1.0  T
   7    -78.8635682 -0.228972E-02  0.106E-01    0.17       1.0  T
   8    -78.8637529 -0.184658E-03  0.499E-02    0.18       1.0  T
   9    -78.8636196  0.133293E-03  0.762E-02    0.24       1.0  T
  10    -78.8637719 -0.152374E-03  0.295E-02    0.21       1.0  T
  11    -78.8637881 -0.161156E-04  0.171E-02    0.19       1.0  T
  12    -78.8637977 -0.969018E-05  0.266E-03    0.20       5.4  T
  13    -78.8637979 -0.169887E-06  0.131E-03    0.20      10.9  T
  14    -78.8637980 -0.468413E-07  0.341E-04    0.20      41.9  T
  15    -78.8637980  0.619876E-08  0.515E-04    0.20      27.7  T
     SCC iter.                  ...        0 min,  0.165 sec
     gradient                   ...        0 min,  0.062 sec
 * total energy  :   -77.3096007 Eh     change       -0.5160494E+00 Eh
   gradient norm :     1.3437878 Eh/α   predicted    -0.4450699E+00 ( -13.75%)
   displ. norm   :     0.7346283 α      lambda       -0.5535668E+00
   maximum displ.:     0.2860598 α      in ANC's #93, #54, #57, ...

........................................................................
.............................. CYCLE    7 ..............................
........................................................................

 iter      E             dE          RMSdq      gap      omega  full diag
   1    -78.8497319 -0.788497E+02  0.263E+00    0.03       0.0  T
   2    -78.9940929 -0.144361E+00  0.179E+00    1.16       1.0  T
   3    -79.0897078 -0.956149E-01  0.767E-01    0.90       1.0  T
   4    -79.0982523 -0.854450E-02  0.581E-01    0.97       1.0  T
   5    -79.1034816 -0.522931E-02  0.388E-01    0.75       1.0  T
   6    -79.1059170 -0.243538E-02  0.166E-01    0.36       1.0  T
   7    -79.1062553 -0.338347E-03  0.754E-02    0.22       1.0  T
   8    -79.1062981 -0.427367E-04  0.350E-02    0.26       1.0  T
   9    -79.1062982 -0.140124E-06  0.233E-02    0.27       1.0  T
  10    -79.1063136 -0.153662E-04  0.839E-03    0.26       1.7  T
  11    -79.1063152 -0.165429E-05  0.217E-03    0.25       6.6  T
  12    -79.1063153 -0.367340E-07  0.112E-03    0.25      12.8  T
  13    -79.1063153 -0.215563E-07  0.523E-04    0.25      27.3  T
  14    -79.1063153 -0.296866E-08  0.268E-04    0.25      53.4  T
     SCC iter.                  ...        0 min,  0.145 sec
     gradient                   ...        0 min,  0.115 sec
 * total energy  :   -77.7721168 Eh     change       -0.4625161E+00 Eh
   gradient norm :     0.8866943 Eh/α   predicted    -0.4261577E+00 (  -7.86%)
   displ. norm   :     0.7919724 α      lambda       -0.4082536E+00
   maximum displ.:     0.2738840 α      in ANC's #93, #54, #16, ...

........................................................................
.............................. CYCLE    8 ..............................
........................................................................

 iter      E             dE          RMSdq      gap      omega  full diag
   1    -79.2387863 -0.792388E+02  0.142E+00    0.36       0.0  T
   2    -79.2208593  0.179270E-01  0.126E+00    0.59       1.0  T
   3    -79.2842352 -0.633760E-01  0.391E-01    0.52       1.0  T
   4    -79.2870459 -0.281064E-02  0.137E-01    0.51       1.0  T
   5    -79.2871477 -0.101860E-03  0.618E-02    0.50       1.0  T
   6    -79.2871824 -0.346776E-04  0.345E-02    0.49       1.0  T
   7    -79.2871985 -0.160492E-04  0.204E-02    0.49       1.0  T
   8    -79.2871988 -0.352745E-06  0.140E-02    0.48       1.0  T
   9    -79.2872002 -0.138091E-05  0.754E-03    0.48       1.9  T
  10    -79.2872011 -0.875426E-06  0.273E-03    0.48       5.2  T
  11    -79.2872011 -0.406096E-07  0.799E-04    0.48      17.9  T
  12    -79.2872011 -0.110707E-07  0.349E-04    0.48      40.9  T
     SCC iter.                  ...        0 min,  0.120 sec
     gradient                   ...        0 min,  0.103 sec
 * total energy  :   -78.1206339 Eh     change       -0.3485171E+00 Eh
   gradient norm :     0.5958544 Eh/α   predicted    -0.3321594E+00 (  -4.69%)
   displ. norm   :     0.8090449 α      lambda       -0.3016676E+00
   maximum displ.:     0.2799256 α      in ANC's #16, #93, #54, ...

........................................................................
.............................. CYCLE    9 ..............................
........................................................................

 iter      E             dE          RMSdq      gap      omega  full diag
   1    -79.4013164 -0.794013E+02  0.117E+00    0.78       0.0  T
   2    -79.3963828  0.493351E-02  0.813E-01    0.63       1.0  T
   3    -79.4217087 -0.253258E-01  0.531E-01    0.77       1.0  T
   4    -79.4272670 -0.555834E-02  0.299E-01    0.62       1.0  T
   5    -79.4289277 -0.166070E-02  0.318E-01    0.55       1.0  T
   6    -79.4283368  0.590940E-03  0.310E-01    0.57       1.0  T
   7    -79.4224507  0.588605E-02  0.486E-01    0.78       1.0  T
   8    -79.4355738 -0.131231E-01  0.431E-01    0.39       1.0  T
   9    -79.1123783  0.323196E+00  0.307E+00    0.03       1.0  T
  10    -79.1957991 -0.834208E-01  0.283E+00    0.01       1.0  T
  11    -79.3174277 -0.121629E+00  0.194E+00    0.03       1.0  T
  12    -79.0142502  0.303178E+00  0.317E+00    0.28       1.0  T
  13    -79.0481780 -0.339278E-01  0.305E+00    0.18       1.0  T
  14    -79.0452768  0.290123E-02  0.306E+00    0.19       1.0  T
  15    -79.4219478 -0.376671E+00  0.129E+00    0.02       1.0  T
  16    -79.3505806  0.713672E-01  0.177E+00    0.01       1.0  T
  17    -79.4676090 -0.117028E+00  0.727E-01    0.14       1.0  T
  18    -79.4348882  0.327208E-01  0.113E+00    0.03       1.0  T
  19    -79.1936087  0.241279E+00  0.246E+00    0.08       1.0  T
  20    -79.3035216 -0.109913E+00  0.197E+00    0.03       1.0  T
  21    -79.2522062  0.513154E-01  0.220E+00    0.05       1.0  T
  22    -79.2684786 -0.162724E-01  0.212E+00    0.05       1.0  T
  23    -79.3156523 -0.471738E-01  0.186E+00    0.03       1.0  T
  24    -79.3696159 -0.539635E-01  0.147E+00    0.01       1.0  T
  25    -79.4073661 -0.377503E-01  0.113E+00    0.01       1.0  T
  26    -79.4125715 -0.520541E-02  0.108E+00    0.02       1.0  T
  27    -79.4544380 -0.418665E-01  0.552E-01    0.06       1.0  T
  28    -79.4577801 -0.334204E-02  0.491E-01    0.06       1.0  T
  29    -79.4602942 -0.251418E-02  0.450E-01    0.07       1.0  T
  30    -79.4530403  0.725392E-02  0.583E-01    0.05       1.0  T
  31    -79.4543362 -0.129587E-02  0.563E-01    0.05       1.0  T
  32    -79.4538144  0.521830E-03  0.572E-01    0.05       1.0  T
  33    -79.4555209 -0.170656E-02  0.550E-01    0.05       1.0  T
  34    -79.4650457 -0.952482E-02  0.335E-01    0.08       1.0  T
  35    -79.4703971 -0.535140E-02  0.208E-01    0.08       1.0  T
  36    -79.4702534  0.143747E-03  0.217E-01    0.08       1.0  T
  37    -79.4712625 -0.100906E-02  0.181E-01    0.09       1.0  T
  38    -79.4713753 -0.112806E-03  0.179E-01    0.09       1.0  T
  39    -79.4719005 -0.525263E-03  0.107E-01    0.10       1.0  T
  40    -79.4726019 -0.701336E-03  0.340E-02    0.10       1.0  T
  41    -79.4725850  0.168851E-04  0.309E-02    0.10       1.0  T
  42    -79.4726411 -0.561257E-04  0.940E-03    0.11       1.5  T
  43    -79.4726445 -0.340027E-05  0.602E-03    0.11       2.4  T
  44    -79.4726434  0.113341E-05  0.705E-03    0.11       2.0  T
  45    -79.4726456 -0.226672E-05  0.244E-03    0.11       5.8  T
  46    -79.4726458 -0.211415E-06  0.746E-04    0.11      19.2  T
  47    -79.4726459 -0.836066E-08  0.427E-04    0.11      33.4  T
     SCC iter.                  ...        0 min,  0.641 sec
     gradient                   ...        0 min,  0.061 sec
 * total energy  :   -78.4276455 Eh     change       -0.3070117E+00 Eh
   gradient norm :     0.4358434 Eh/α   predicted    -0.2495629E+00 ( -18.71%)
   displ. norm   :     0.8503364 α      lambda       -0.2742668E+00
   maximum displ.:     0.3773064 α      in ANC's #93, #16, #57, ...

........................................................................
.............................. CYCLE   10 ..............................
........................................................................

 iter      E             dE          RMSdq      gap      omega  full diag
   1    -79.6057301 -0.796057E+02  0.853E-01    0.54       0.0  T
   2    -79.6089120 -0.318189E-02  0.583E-01    0.11       1.0  T
   3    -79.6114669 -0.255484E-02  0.432E-01    0.55       1.0  T
   4    -79.6140798 -0.261298E-02  0.182E-01    0.27       1.0  T
   5    -79.6140913 -0.115134E-04  0.923E-02    0.15       1.0  T
   6    -79.6143999 -0.308598E-03  0.607E-02    0.23       1.0  T
   7    -79.6144912 -0.912156E-04  0.277E-02    0.21       1.0  T
   8    -79.6145129 -0.217594E-04  0.811E-03    0.20       1.8  T
   9    -79.6145134 -0.502690E-06  0.474E-03    0.19       3.0  T
  10    -79.6145139 -0.468312E-06  0.185E-03    0.20       7.7  T
  11    -79.6145139 -0.295879E-07  0.922E-04    0.20      15.5  T
  12    -79.6145139 -0.218168E-07  0.332E-04    0.20      43.0  T
     SCC iter.                  ...        0 min,  0.119 sec
     gradient                   ...        0 min,  0.060 sec
 * total energy  :   -78.6482677 Eh     change       -0.2206221E+00 Eh
   gradient norm :     0.3041953 Eh/α   predicted    -0.2362910E+00 (   7.10%)
   displ. norm   :     0.7946585 α      lambda       -0.1726095E+00
   maximum displ.:     0.3917811 α      in ANC's #16, #93, #57, ...

........................................................................
.............................. CYCLE   11 ..............................
........................................................................

 iter      E             dE          RMSdq      gap      omega  full diag
   1    -79.7045218 -0.797045E+02  0.621E-01    0.58       0.0  T
   2    -79.7068960 -0.237418E-02  0.352E-01    0.59       1.0  T
   3    -79.7069462 -0.501556E-04  0.163E-01    0.59       1.0  T
   4    -79.7070298 -0.836253E-04  0.328E-02    0.57       1.0  T
   5    -79.7070502 -0.203646E-04  0.175E-02    0.58       1.0  T
   6    -79.7070538 -0.366604E-05  0.895E-03    0.59       1.6  T
   7    -79.7070544 -0.527178E-06  0.404E-03    0.59       3.5  T
   8    -79.7070546 -0.187672E-06  0.141E-03    0.59      10.1  T
   9    -79.7070546 -0.122610E-07  0.711E-04    0.59      20.1  T
  10    -79.7070546 -0.337970E-08  0.276E-04    0.59      51.7  T
     SCC iter.                  ...        0 min,  0.214 sec
     gradient                   ...        0 min,  0.063 sec
 * total energy  :   -78.7957727 Eh     change       -0.1475050E+00 Eh
   gradient norm :     0.2426533 Eh/α   predicted    -0.1408052E+00 (  -4.54%)
   displ. norm   :     0.8075031 α      lambda       -0.1392974E+00
   maximum displ.:     0.3368471 α      in ANC's #16, #93, #57, ...

........................................................................
.............................. CYCLE   12 ..............................
........................................................................

 iter      E             dE          RMSdq      gap      omega  full diag
   1    -79.7866752 -0.797867E+02  0.557E-01    0.85       0.0  T
   2    -79.7888561 -0.218093E-02  0.283E-01    0.94       1.0  T
   3    -79.7889217 -0.655582E-04  0.145E-01    0.96       1.0  T
   4    -79.7889573 -0.355739E-04  0.355E-02    0.97       1.0  T
   5    -79.7889641 -0.687093E-05  0.184E-02    0.97       1.0  T
   6    -79.7889680 -0.387005E-05  0.836E-03    0.97       1.7  T
   7    -79.7889686 -0.554357E-06  0.318E-03    0.97       4.5  T
   8    -79.7889687 -0.142368E-06  0.113E-03    0.97      12.6  T
   9    -79.7889687 -0.911247E-08  0.600E-04    0.97      23.8  T
  10    -79.7889687 -0.345571E-08  0.261E-04    0.97      54.7  T
     SCC iter.                  ...        0 min,  0.216 sec
     gradient                   ...        0 min,  0.106 sec
 * total energy  :   -78.9135676 Eh     change       -0.1177949E+00 Eh
   gradient norm :     0.2154302 Eh/α   predicted    -0.1150641E+00 (  -2.32%)
   displ. norm   :     0.8068846 α      lambda       -0.1097738E+00
   maximum displ.:     0.4792786 α      in ANC's #16, #93, #51, ...

........................................................................
.............................. CYCLE   13 ..............................
........................................................................

 iter      E             dE          RMSdq      gap      omega  full diag
   1    -79.8579762 -0.798580E+02  0.497E-01    1.04       0.0  T
   2    -79.8592167 -0.124045E-02  0.255E-01    1.09       1.0  T
   3    -79.8592483 -0.315638E-04  0.115E-01    1.11       1.0  T
   4    -79.8592888 -0.405791E-04  0.239E-02    1.11       1.0  T
   5    -79.8592951 -0.629612E-05  0.119E-02    1.11       1.2  T
   6    -79.8592971 -0.193176E-05  0.598E-03    1.11       2.4  T
   7    -79.8592973 -0.236594E-06  0.232E-03    1.11       6.2  T
   8    -79.8592974 -0.582206E-07  0.921E-04    1.11      15.5  T
   9    -79.8592974 -0.868324E-08  0.509E-04    1.11      28.1  T
     SCC iter.                  ...        0 min,  0.212 sec
     gradient                   ...        0 min,  0.089 sec
 * total energy  :   -79.0073679 Eh     change       -0.9380033E-01 Eh
   gradient norm :     0.1967775 Eh/α   predicted    -0.9062179E-01 (  -3.39%)
   displ. norm   :     0.7824888 α      lambda       -0.8874174E-01
   maximum displ.:     0.4547394 α      in ANC's #16, #93, #75, ...

........................................................................
.............................. CYCLE   14 ..............................
........................................................................

 iter      E             dE          RMSdq      gap      omega  full diag
   1    -79.9182804 -0.799183E+02  0.425E-01    1.14       0.0  T
   2    -79.9191751 -0.894709E-03  0.222E-01    1.17       1.0  T
   3    -79.9192015 -0.263668E-04  0.927E-02    1.17       1.0  T
   4    -79.9192336 -0.321595E-04  0.264E-02    1.19       1.0  T
   5    -79.9192389 -0.528438E-05  0.127E-02    1.18       1.1  T
   6    -79.9192414 -0.245488E-05  0.596E-03    1.18       2.4  T
   7    -79.9192416 -0.217536E-06  0.239E-03    1.18       6.0  T
   8    -79.9192416 -0.635878E-07  0.918E-04    1.18      15.6  T
   9    -79.9192416 -0.848939E-08  0.509E-04    1.18      28.1  T
     SCC iter.                  ...        0 min,  0.176 sec
     gradient                   ...        0 min,  0.102 sec
 * total energy  :   -79.0850544 Eh     change       -0.7768646E-01 Eh
   gradient norm :     0.1926037 Eh/α   predicted    -0.7153870E-01 (  -7.91%)
   displ. norm   :     0.7818091 α      lambda       -0.8175748E-01
   maximum displ.:     0.4770727 α      in ANC's #16, #75, #34, ...

........................................................................
.............................. CYCLE   15 ..............................
........................................................................

 iter      E             dE          RMSdq      gap      omega  full diag
   1    -79.9827692 -0.799828E+02  0.382E-01    1.24       0.0  T
   2    -79.9834856 -0.716409E-03  0.206E-01    1.25       1.0  T
   3    -79.9835102 -0.246749E-04  0.807E-02    1.24       1.0  T
   4    -79.9835432 -0.329851E-04  0.235E-02    1.26       1.0  T
   5    -79.9835505 -0.731983E-05  0.991E-03    1.25       1.4  T
   6    -79.9835521 -0.160057E-05  0.496E-03    1.25       2.9  T
   7    -79.9835522 -0.997640E-07  0.235E-03    1.25       6.1  T
   8    -79.9835523 -0.644877E-07  0.875E-04    1.25      16.3  T
   9    -79.9835523 -0.644314E-08  0.474E-04    1.25      30.2  T
     SCC iter.                  ...        0 min,  0.097 sec
     gradient                   ...        0 min,  0.072 sec
 * total energy  :   -79.1570827 Eh     change       -0.7202833E-01 Eh
   gradient norm :     0.1828999 Eh/α   predicted    -0.6586486E-01 (  -8.56%)
   displ. norm   :     0.7745174 α      lambda       -0.7558703E-01
   maximum displ.:     0.4490754 α      in ANC's #16, #75, #34, ...

........................................................................
.............................. CYCLE   16 ..............................
........................................................................

 iter      E             dE          RMSdq      gap      omega  full diag
   1    -80.0455665 -0.800456E+02  0.360E-01    1.36       0.0  T
   2    -80.0462384 -0.671928E-03  0.210E-01    1.36       1.0  T
   3    -80.0462619 -0.235546E-04  0.810E-02    1.34       1.0  T
   4    -80.0462969 -0.349335E-04  0.257E-02    1.35       1.0  T
   5    -80.0463085 -0.116309E-04  0.113E-02    1.35       1.3  T
   6    -80.0463094 -0.900693E-06  0.655E-03    1.35       2.2  T
   7    -80.0463095 -0.110435E-06  0.276E-03    1.35       5.2  T
   8    -80.0463096 -0.871319E-07  0.100E-03    1.35      14.3  T
   9    -80.0463096 -0.616492E-08  0.433E-04    1.35      33.0  T
  10    -80.0463096 -0.843926E-09  0.223E-04    1.35      64.0  T
     SCC iter.                  ...        0 min,  0.160 sec
     gradient                   ...        0 min,  0.093 sec
 * total energy  :   -79.2219443 Eh     change       -0.6486159E-01 Eh
   gradient norm :     0.1640900 Eh/α   predicted    -0.6046505E-01 (  -6.78%)
   displ. norm   :     0.7458109 α      lambda       -0.6148379E-01
   maximum displ.:     0.4034692 α      in ANC's #16, #75, #10, ...

........................................................................
.............................. CYCLE   17 ..............................
........................................................................

 iter      E             dE          RMSdq      gap      omega  full diag
   1    -80.1073599 -0.801074E+02  0.345E-01    1.45       0.0  T
   2    -80.1079986 -0.638635E-03  0.213E-01    1.45       1.0  T
   3    -80.1080237 -0.251446E-04  0.860E-02    1.42       1.0  T
   4    -80.1080614 -0.376953E-04  0.266E-02    1.43       1.0  T
   5    -80.1080735 -0.120506E-04  0.122E-02    1.43       1.2  T
   6    -80.1080741 -0.615831E-06  0.686E-03    1.43       2.1  T
   7    -80.1080743 -0.252500E-06  0.252E-03    1.43       5.7  T
   8    -80.1080744 -0.549688E-07  0.129E-03    1.43      11.0  T
   9    -80.1080744 -0.708394E-08  0.505E-04    1.43      28.3  T
  10    -80.1080744 -0.189792E-08  0.221E-04    1.43      64.6  T
     SCC iter.                  ...        0 min,  0.149 sec
     gradient                   ...        0 min,  0.102 sec
 * total energy  :   -79.2689265 Eh     change       -0.4698223E-01 Eh
   gradient norm :     0.1335756 Eh/α   predicted    -0.4784162E-01 (   1.83%)
   displ. norm   :     0.6806369 α      lambda       -0.3301695E-01
   maximum displ.:     0.4379444 α      in ANC's #16, #23, #10, ...

........................................................................
.............................. CYCLE   18 ..............................
........................................................................

 iter      E             dE          RMSdq      gap      omega  full diag
   1    -80.1376542 -0.801377E+02  0.248E-01    1.52       0.0  T
   2    -80.1378331 -0.178918E-03  0.152E-01    1.51       1.0  T
   3    -80.1378269  0.619140E-05  0.481E-02    1.49       1.0  T
   4    -80.1378532 -0.262655E-04  0.154E-02    1.49       1.0  T
   5    -80.1378565 -0.333474E-05  0.777E-03    1.49       1.8  T
   6    -80.1378566 -0.973162E-07  0.383E-03    1.50       3.7  T
   7    -80.1378568 -0.110541E-06  0.123E-03    1.50      11.6  T
   8    -80.1378568 -0.158061E-07  0.563E-04    1.50      25.4  T
   9    -80.1378568 -0.370572E-08  0.246E-04    1.50      58.1  T
     SCC iter.                  ...        0 min,  0.090 sec
     gradient                   ...        0 min,  0.056 sec
 * total energy  :   -79.2949761 Eh     change       -0.2604962E-01 Eh
   gradient norm :     0.1435571 Eh/α   predicted    -0.2415634E-01 (  -7.27%)
   displ. norm   :     0.7426960 α      lambda       -0.3261930E-01
   maximum displ.:     0.3858884 α      in ANC's #16, #10, #7, ...

........................................................................
.............................. CYCLE   19 ..............................
........................................................................

 iter      E             dE          RMSdq      gap      omega  full diag
   1    -80.1860137 -0.801860E+02  0.239E-01    1.54       0.0  T
   2    -80.1860883 -0.746645E-04  0.144E-01    1.53       1.0  T
   3    -80.1860754  0.128839E-04  0.350E-02    1.52       1.0  T
   4    -80.1861039 -0.284110E-04  0.111E-02    1.52       1.3  T
   5    -80.1861049 -0.108215E-05  0.597E-03    1.52       2.4  T
   6    -80.1861051 -0.145256E-06  0.245E-03    1.52       5.8  T
   7    -80.1861051 -0.582470E-07  0.745E-04    1.52      19.2  T
   8    -80.1861051 -0.454976E-08  0.327E-04    1.52      43.7  T
     SCC iter.                  ...        0 min,  0.090 sec
     gradient                   ...        0 min,  0.104 sec
 * total energy  :   -79.3206296 Eh     change       -0.2565349E-01 Eh
   gradient norm :     0.1397504 Eh/α   predicted    -0.2530603E-01 (  -1.35%)
   displ. norm   :     0.7490850 α      lambda       -0.3716329E-01
   maximum displ.:     0.4264366 α      in ANC's #16, #23, #10, ...

........................................................................
.............................. CYCLE   20 ..............................
........................................................................

 iter      E             dE          RMSdq      gap      omega  full diag
   1    -80.2018203 -0.802018E+02  0.326E-01    1.52       0.0  T
   2    -80.2019228 -0.102467E-03  0.192E-01    1.51       1.0  T
   3    -80.2019124  0.104228E-04  0.459E-02    1.49       1.0  T
   4    -80.2019501 -0.376962E-04  0.210E-02    1.49       1.0  T
   5    -80.2019518 -0.169447E-05  0.111E-02    1.49       1.3  T
   6    -80.2019520 -0.215406E-06  0.429E-03    1.49       3.3  T
   7    -80.2019522 -0.263237E-06  0.132E-03    1.49      10.8  T
   8    -80.2019522 -0.902018E-08  0.673E-04    1.49      21.2  T
   9    -80.2019523 -0.217571E-08  0.309E-04    1.49      46.3  T
     SCC iter.                  ...        0 min,  0.192 sec
     gradient                   ...        0 min,  0.106 sec
 * total energy  :   -79.3435079 Eh     change       -0.2287823E-01 Eh
   gradient norm :     0.1355358 Eh/α   predicted    -0.2900851E-01 (  26.80%)
   displ. norm   :     0.6847928 α      lambda       -0.2727144E-01
   maximum displ.:     0.2662663 α      in ANC's #10, #16, #12, ...
 * RMSD in coord.:     1.4657970 α      energy gain  -0.9394447E+02 Eh

generating ANC from exact Hessian ...
Using Lindh-Hessian (1995)
 Shifting diagonal of input Hessian by    1.1859918084709592E-002
 Lowest  eigenvalues of input Hessian
    0.010000    0.010356    0.011464    0.011622    0.011631    0.011682
    0.011756    0.011761    0.000000    0.000000    0.000000    0.000000
    0.000000    0.000000    0.011920    0.011954    0.012207    0.012274
 Highest eigenvalues
    2.048484    2.110945    2.137521    2.361458    2.474127    2.573733


........................................................................
.............................. CYCLE   21 ..............................
........................................................................

 iter      E             dE          RMSdq      gap      omega  full diag
   1    -80.2152207 -0.802152E+02  0.241E-01    1.58       0.0  T
   2    -80.2154732 -0.252547E-03  0.134E-01    1.55       1.0  T
   3    -80.2154750 -0.171126E-05  0.543E-02    1.52       1.0  T
   4    -80.2154986 -0.235946E-04  0.168E-02    1.52       1.0  T
   5    -80.2155024 -0.381229E-05  0.670E-03    1.52       2.1  T
   6    -80.2155027 -0.334929E-06  0.398E-03    1.53       3.6  T
   7    -80.2155028 -0.124723E-06  0.158E-03    1.53       9.0  T
   8    -80.2155028 -0.133139E-07  0.615E-04    1.52      23.2  T
   9    -80.2155028 -0.379113E-08  0.333E-04    1.52      42.9  T
     SCC iter.                  ...        0 min,  0.141 sec
     gradient                   ...        0 min,  0.077 sec
 * total energy  :   -79.3662381 Eh     change       -0.2273024E-01 Eh
   gradient norm :     0.1098125 Eh/α   predicted     0.0000000E+00 (-100.00%)
   displ. norm   :     0.5936026 α      lambda       -0.2918804E-01
   maximum displ.:     0.2427757 α      in ANC's #2, #29, #41, ...

........................................................................
.............................. CYCLE   22 ..............................
........................................................................

 iter      E             dE          RMSdq      gap      omega  full diag
   1    -80.2423039 -0.802423E+02  0.170E-01    1.52       0.0  T
   2    -80.2425736 -0.269717E-03  0.935E-02    1.53       1.0  T
   3    -80.2425884 -0.148006E-04  0.478E-02    1.53       1.0  T
   4    -80.2425927 -0.426505E-05  0.117E-02    1.54       1.2  T
   5    -80.2425942 -0.149919E-05  0.573E-03    1.54       2.5  T
   6    -80.2425945 -0.268298E-06  0.300E-03    1.54       4.8  T
   7    -80.2425945 -0.772556E-07  0.129E-03    1.54      11.1  T
   8    -80.2425945 -0.787890E-08  0.553E-04    1.54      25.8  T
   9    -80.2425945 -0.971028E-09  0.220E-04    1.54      64.9  T
     SCC iter.                  ...        0 min,  0.131 sec
     gradient                   ...        0 min,  0.103 sec
 * total energy  :   -79.3919331 Eh     change       -0.2569502E-01 Eh
   gradient norm :     0.0686393 Eh/α   predicted    -0.1974110E-01 ( -23.17%)
   displ. norm   :     0.7748755 α      lambda       -0.3148260E-01
   maximum displ.:     0.2569112 α      in ANC's #41, #2, #29, ...

........................................................................
.............................. CYCLE   23 ..............................
........................................................................

 iter      E             dE          RMSdq      gap      omega  full diag
   1    -80.2733333 -0.802733E+02  0.233E-01    1.60       0.0  T
   2    -80.2739300 -0.596784E-03  0.122E-01    1.60       1.0  T
   3    -80.2739599 -0.298718E-04  0.637E-02    1.59       1.0  T
   4    -80.2739663 -0.636905E-05  0.202E-02    1.60       1.0  T
   5    -80.2739713 -0.503210E-05  0.104E-02    1.60       1.4  T
   6    -80.2739719 -0.559279E-06  0.569E-03    1.60       2.5  T
   7    -80.2739721 -0.192232E-06  0.215E-03    1.60       6.6  T
   8    -80.2739721 -0.298667E-07  0.720E-04    1.60      19.8  T
   9    -80.2739721 -0.211305E-08  0.276E-04    1.60      51.7  T
     SCC iter.                  ...        0 min,  0.115 sec
     gradient                   ...        0 min,  0.065 sec
 * total energy  :   -79.4181010 Eh     change       -0.2616785E-01 Eh
   gradient norm :     0.0515544 Eh/α   predicted    -0.2519288E-01 (  -3.73%)
   displ. norm   :     0.8156822 α      lambda       -0.2389132E-01
   maximum displ.:     0.2906295 α      in ANC's #41, #7, #23, ...

........................................................................
.............................. CYCLE   24 ..............................
........................................................................

 iter      E             dE          RMSdq      gap      omega  full diag
   1    -80.2913139 -0.802913E+02  0.214E-01    1.69       0.0  T
   2    -80.2917747 -0.460834E-03  0.108E-01    1.68       1.0  T
   3    -80.2918003 -0.256039E-04  0.549E-02    1.67       1.0  T
   4    -80.2918102 -0.981701E-05  0.207E-02    1.68       1.0  T
   5    -80.2918149 -0.469861E-05  0.109E-02    1.68       1.3  T
   6    -80.2918152 -0.383725E-06  0.639E-03    1.67       2.2  T
   7    -80.2918155 -0.210544E-06  0.214E-03    1.67       6.7  T
   8    -80.2918155 -0.355643E-07  0.649E-04    1.67      22.0  T
   9    -80.2918155 -0.413995E-08  0.303E-04    1.67      47.2  T
     SCC iter.                  ...        0 min,  0.120 sec
     gradient                   ...        0 min,  0.086 sec
 * total energy  :   -79.4395807 Eh     change       -0.2147978E-01 Eh
   gradient norm :     0.0604372 Eh/α   predicted    -0.1989358E-01 (  -7.38%)
   displ. norm   :     0.8583997 α      lambda       -0.2266391E-01
   maximum displ.:     0.2983561 α      in ANC's #41, #7, #23, ...

........................................................................
.............................. CYCLE   25 ..............................
........................................................................

 iter      E             dE          RMSdq      gap      omega  full diag
   1    -80.3042572 -0.803043E+02  0.220E-01    1.75       0.0  T
   2    -80.3047619 -0.504766E-03  0.109E-01    1.73       1.0  T
   3    -80.3047950 -0.330986E-04  0.556E-02    1.72       1.0  T
   4    -80.3048097 -0.147100E-04  0.219E-02    1.73       1.0  T
   5    -80.3048135 -0.371340E-05  0.114E-02    1.73       1.3  T
   6    -80.3048140 -0.566387E-06  0.702E-03    1.73       2.0  T
   7    -80.3048142 -0.180649E-06  0.222E-03    1.73       6.4  T
   8    -80.3048143 -0.595876E-07  0.779E-04    1.73      18.3  T
   9    -80.3048143 -0.657019E-08  0.423E-04    1.73      33.8  T
     SCC iter.                  ...        0 min,  0.184 sec
     gradient                   ...        0 min,  0.058 sec
 * total energy  :   -79.4598387 Eh     change       -0.2025792E-01 Eh
   gradient norm :     0.0515148 Eh/α   predicted    -0.1968191E-01 (  -2.84%)
   displ. norm   :     0.8581050 α      lambda       -0.2026270E-01
   maximum displ.:     0.2830959 α      in ANC's #2, #41, #7, ...

........................................................................
.............................. CYCLE   26 ..............................
........................................................................

 iter      E             dE          RMSdq      gap      omega  full diag
   1    -80.3205755 -0.803206E+02  0.220E-01    1.77       0.0  T
   2    -80.3210296 -0.454132E-03  0.112E-01    1.75       1.0  T
   3    -80.3210595 -0.298295E-04  0.570E-02    1.73       1.0  T
   4    -80.3210789 -0.194685E-04  0.247E-02    1.74       1.0  T
   5    -80.3210832 -0.427477E-05  0.140E-02    1.74       1.0  T
   6    -80.3210837 -0.486821E-06  0.828E-03    1.74       1.7  T
   7    -80.3210840 -0.287341E-06  0.221E-03    1.74       6.5  T
   8    -80.3210841 -0.911067E-07  0.833E-04    1.74      17.1  T
   9    -80.3210841 -0.697996E-08  0.478E-04    1.74      29.9  T
     SCC iter.                  ...        0 min,  0.192 sec
     gradient                   ...        0 min,  0.054 sec
 * total energy  :   -79.4785275 Eh     change       -0.1868881E-01 Eh
   gradient norm :     0.0461540 Eh/α   predicted    -0.1759153E-01 (  -5.87%)
   displ. norm   :     0.8729934 α      lambda       -0.1904315E-01
   maximum displ.:     0.2873856 α      in ANC's #23, #7, #2, ...

........................................................................
.............................. CYCLE   27 ..............................
........................................................................

 iter      E             dE          RMSdq      gap      omega  full diag
   1    -80.3409427 -0.803409E+02  0.231E-01    1.76       0.0  T
   2    -80.3413600 -0.417272E-03  0.122E-01    1.74       1.0  T
   3    -80.3413819 -0.218963E-04  0.650E-02    1.72       1.0  T
   4    -80.3414097 -0.277974E-04  0.308E-02    1.73       1.0  T
   5    -80.3414157 -0.600775E-05  0.185E-02    1.72       1.0  T
   6    -80.3414158 -0.897099E-07  0.949E-03    1.73       1.5  T
   7    -80.3414165 -0.725862E-06  0.228E-03    1.73       6.3  T
   8    -80.3414166 -0.112134E-06  0.823E-04    1.73      17.4  T
   9    -80.3414167 -0.765463E-08  0.467E-04    1.73      30.6  T
     SCC iter.                  ...        0 min,  0.184 sec
     gradient                   ...        0 min,  0.060 sec
 * total energy  :   -79.4958836 Eh     change       -0.1735613E-01 Eh
   gradient norm :     0.0463606 Eh/α   predicted    -0.1677818E-01 (  -3.33%)
   displ. norm   :     0.8787796 α      lambda       -0.1775694E-01
   maximum displ.:     0.3585969 α      in ANC's #23, #7, #14, ...

........................................................................
.............................. CYCLE   28 ..............................
........................................................................

 iter      E             dE          RMSdq      gap      omega  full diag
   1    -80.3628864 -0.803629E+02  0.233E-01    1.75       0.0  T
   2    -80.3632565 -0.370133E-03  0.125E-01    1.72       1.0  T
   3    -80.3632714 -0.148402E-04  0.701E-02    1.70       1.0  T
   4    -80.3633060 -0.346699E-04  0.352E-02    1.71       1.0  T
   5    -80.3633120 -0.591829E-05  0.221E-02    1.71       1.0  T
   6    -80.3633116  0.375016E-06  0.986E-03    1.71       1.4  T
   7    -80.3633128 -0.123204E-05  0.227E-03    1.71       6.3  T
   8    -80.3633129 -0.111897E-06  0.740E-04    1.71      19.3  T
   9    -80.3633129 -0.663906E-08  0.413E-04    1.71      34.6  T
     SCC iter.                  ...        0 min,  0.131 sec
     gradient                   ...        0 min,  0.106 sec
 * total energy  :   -79.5120572 Eh     change       -0.1617355E-01 Eh
   gradient norm :     0.0436353 Eh/α   predicted    -0.1573491E-01 (  -2.71%)
   displ. norm   :     0.8883804 α      lambda       -0.1650897E-01
   maximum displ.:     0.4904706 α      in ANC's #23, #51, #7, ...

........................................................................
.............................. CYCLE   29 ..............................
........................................................................

 iter      E             dE          RMSdq      gap      omega  full diag
   1    -80.3861067 -0.803861E+02  0.219E-01    1.74       0.0  T
   2    -80.3863489 -0.242243E-03  0.122E-01    1.71       1.0  T
   3    -80.3863460  0.292411E-05  0.698E-02    1.69       1.0  T
   4    -80.3863918 -0.457773E-04  0.359E-02    1.70       1.0  T
   5    -80.3863950 -0.326118E-05  0.239E-02    1.70       1.0  T
   6    -80.3863947  0.312810E-06  0.845E-03    1.70       1.7  T
   7    -80.3863958 -0.111461E-05  0.197E-03    1.70       7.3  T
   8    -80.3863959 -0.769288E-07  0.601E-04    1.70      23.8  T
   9    -80.3863959 -0.383361E-08  0.357E-04    1.70      40.0  T
     SCC iter.                  ...        0 min,  0.119 sec
     gradient                   ...        0 min,  0.093 sec
 * total energy  :   -79.5270891 Eh     change       -0.1503198E-01 Eh
   gradient norm :     0.0364482 Eh/α   predicted    -0.1476910E-01 (  -1.75%)
   displ. norm   :     0.8807520 α      lambda       -0.1468555E-01
   maximum displ.:     0.5116808 α      in ANC's #23, #51, #7, ...

........................................................................
.............................. CYCLE   30 ..............................
........................................................................

 iter      E             dE          RMSdq      gap      omega  full diag
   1    -80.4020310 -0.804020E+02  0.179E-01    1.72       0.0  T
   2    -80.4021683 -0.137382E-03  0.102E-01    1.72       1.0  T
   3    -80.4021570  0.113303E-04  0.584E-02    1.70       1.0  T
   4    -80.4022059 -0.489257E-04  0.272E-02    1.70       1.0  T
   5    -80.4022074 -0.149549E-05  0.190E-02    1.70       1.0  T
   6    -80.4022071  0.352072E-06  0.661E-03    1.70       2.2  T
   7    -80.4022078 -0.755845E-06  0.152E-03    1.70       9.4  T
   8    -80.4022079 -0.511243E-07  0.462E-04    1.70      30.9  T
   9    -80.4022079 -0.166243E-08  0.283E-04    1.70      50.5  T
     SCC iter.                  ...        0 min,  0.207 sec
     gradient                   ...        0 min,  0.105 sec
 * total energy  :   -79.5402794 Eh     change       -0.1319023E-01 Eh
   gradient norm :     0.0277781 Eh/α   predicted    -0.1303875E-01 (  -1.15%)
   displ. norm   :     0.8788362 α      lambda       -0.1301086E-01
   maximum displ.:     0.5664043 α      in ANC's #23, #51, #7, ...

........................................................................
.............................. CYCLE   31 ..............................
........................................................................

 iter      E             dE          RMSdq      gap      omega  full diag
   1    -80.4213343 -0.804213E+02  0.152E-01    1.71       0.0  T
   2    -80.4214361 -0.101848E-03  0.860E-02    1.72       1.0  T
   3    -80.4214263  0.981021E-05  0.518E-02    1.71       1.0  T
   4    -80.4214701 -0.437264E-04  0.192E-02    1.71       1.0  T
   5    -80.4214710 -0.923908E-06  0.125E-02    1.71       1.1  T
   6    -80.4214710 -0.144130E-07  0.425E-03    1.71       3.4  T
   7    -80.4214713 -0.318885E-06  0.960E-04    1.71      14.9  T
   8    -80.4214713 -0.238014E-07  0.416E-04    1.71      34.3  T
     SCC iter.                  ...        0 min,  0.072 sec
     gradient                   ...        0 min,  0.104 sec
 * total energy  :   -79.5522668 Eh     change       -0.1198746E-01 Eh
   gradient norm :     0.0274984 Eh/α   predicted    -0.1152993E-01 (  -3.82%)
   displ. norm   :     0.9307004 α      lambda       -0.1332304E-01
   maximum displ.:     0.6266060 α      in ANC's #23, #51, #7, ...

........................................................................
.............................. CYCLE   32 ..............................
........................................................................

 iter      E             dE          RMSdq      gap      omega  full diag
   1    -80.4273992 -0.804274E+02  0.169E-01    1.72       0.0  T
   2    -80.4275015 -0.102227E-03  0.971E-02    1.73       1.0  T
   3    -80.4274784  0.230718E-04  0.583E-02    1.72       1.0  T
   4    -80.4275429 -0.644750E-04  0.139E-02    1.72       1.0  T
   5    -80.4275443 -0.146840E-05  0.857E-03    1.72       1.7  T
   6    -80.4275445 -0.166767E-06  0.393E-03    1.72       3.6  T
   7    -80.4275446 -0.105676E-06  0.113E-03    1.72      12.7  T
   8    -80.4275446 -0.270488E-07  0.627E-04    1.72      22.8  T
   9    -80.4275446 -0.286401E-08  0.384E-04    1.72      37.2  T
     SCC iter.                  ...        0 min,  0.225 sec
     gradient                   ...        0 min,  0.075 sec
 * total energy  :   -79.5640567 Eh     change       -0.1178988E-01 Eh
   gradient norm :     0.0368139 Eh/α   predicted    -0.1243176E-01 (   5.44%)
   displ. norm   :     0.8734790 α      lambda       -0.1119012E-01
   maximum displ.:     0.6326922 α      in ANC's #23, #51, #7, ...

........................................................................
.............................. CYCLE   33 ..............................
........................................................................

 iter      E             dE          RMSdq      gap      omega  full diag
   1    -80.4368031 -0.804368E+02  0.118E-01    1.74       0.0  T
   2    -80.4368676 -0.644987E-04  0.653E-02    1.74       1.0  T
   3    -80.4368696 -0.198840E-05  0.435E-02    1.73       1.0  T
   4    -80.4369037 -0.341487E-04  0.813E-03    1.73       1.8  T
   5    -80.4369043 -0.613496E-06  0.486E-03    1.73       2.9  T
   6    -80.4369045 -0.113227E-06  0.258E-03    1.73       5.5  T
   7    -80.4369045 -0.337589E-07  0.110E-03    1.73      12.9  T
   8    -80.4369045 -0.180538E-07  0.498E-04    1.73      28.7  T
   9    -80.4369045 -0.232033E-08  0.284E-04    1.73      50.3  T
     SCC iter.                  ...        0 min,  0.139 sec
     gradient                   ...        0 min,  0.064 sec
 * total energy  :   -79.5726466 Eh     change       -0.8589928E-02 Eh
   gradient norm :     0.0248511 Eh/α   predicted    -0.9863899E-02 (  14.83%)
   displ. norm   :     0.7247971 α      lambda       -0.6756451E-02
   maximum displ.:     0.4397663 α      in ANC's #23, #7, #51, ...

........................................................................
.............................. CYCLE   34 ..............................
........................................................................

 iter      E             dE          RMSdq      gap      omega  full diag
   1    -80.4406125 -0.804406E+02  0.126E-01    1.76       0.0  T
   2    -80.4406564 -0.439781E-04  0.705E-02    1.75       1.0  T
   3    -80.4406362  0.202849E-04  0.441E-02    1.75       1.0  T
   4    -80.4406834 -0.472107E-04  0.758E-03    1.74       1.9  T
   5    -80.4406840 -0.592518E-06  0.420E-03    1.74       3.4  T
   6    -80.4406840 -0.618292E-07  0.214E-03    1.74       6.7  T
   7    -80.4406841 -0.431427E-07  0.935E-04    1.74      15.3  T
   8    -80.4406841 -0.930942E-08  0.459E-04    1.74      31.1  T
     SCC iter.                  ...        0 min,  0.167 sec
     gradient                   ...        0 min,  0.094 sec
 * total energy  :   -79.5779520 Eh     change       -0.5305333E-02 Eh
   gradient norm :     0.0272156 Eh/α   predicted    -0.5152918E-02 (  -2.87%)
   displ. norm   :     0.7565072 α      lambda       -0.6046923E-02
   maximum displ.:     0.3700677 α      in ANC's #23, #7, #51, ...

........................................................................
.............................. CYCLE   35 ..............................
........................................................................

 iter      E             dE          RMSdq      gap      omega  full diag
   1    -80.4412848 -0.804413E+02  0.135E-01    1.76       0.0  T
   2    -80.4413292 -0.444253E-04  0.763E-02    1.74       1.0  T
   3    -80.4412991  0.300902E-04  0.470E-02    1.74       1.0  T
   4    -80.4413538 -0.546680E-04  0.136E-02    1.74       1.1  T
   5    -80.4413542 -0.445892E-06  0.848E-03    1.74       1.7  T
   6    -80.4413542  0.223022E-07  0.310E-03    1.74       4.6  T
   7    -80.4413543 -0.132417E-06  0.980E-04    1.74      14.6  T
   8    -80.4413544 -0.186955E-07  0.443E-04    1.74      32.3  T
     SCC iter.                  ...        0 min,  0.070 sec
     gradient                   ...        0 min,  0.056 sec
 * total energy  :   -79.5825582 Eh     change       -0.4606281E-02 Eh
   gradient norm :     0.0229564 Eh/α   predicted    -0.4753803E-02 (   3.20%)
   displ. norm   :     0.7655024 α      lambda       -0.4897612E-02
   maximum displ.:     0.3526880 α      in ANC's #7, #23, #51, ...

........................................................................
.............................. CYCLE   36 ..............................
........................................................................

 iter      E             dE          RMSdq      gap      omega  full diag
   1    -80.4516235 -0.804516E+02  0.130E-01    1.75       0.0  T
   2    -80.4516518 -0.283099E-04  0.746E-02    1.74       1.0  T
   3    -80.4516174  0.343837E-04  0.388E-02    1.73       1.0  T
   4    -80.4516670 -0.495461E-04  0.562E-03    1.73       2.5  T
   5    -80.4516672 -0.249515E-06  0.338E-03    1.73       4.2  T
   6    -80.4516673 -0.299658E-07  0.185E-03    1.73       7.7  T
   7    -80.4516673 -0.145185E-07  0.602E-04    1.74      23.7  T
   8    -80.4516673 -0.563942E-08  0.253E-04    1.74      56.5  T
     SCC iter.                  ...        0 min,  0.260 sec
     gradient                   ...        0 min,  0.149 sec
 * total energy  :   -79.5865694 Eh     change       -0.4011202E-02 Eh
   gradient norm :     0.0251071 Eh/α   predicted    -0.3883796E-02 (  -3.18%)
   displ. norm   :     0.8297569 α      lambda       -0.5138014E-02
   maximum displ.:     0.4220706 α      in ANC's #7, #51, #23, ...

........................................................................
.............................. CYCLE   37 ..............................
........................................................................

 iter      E             dE          RMSdq      gap      omega  full diag
   1    -80.4508024 -0.804508E+02  0.126E-01    1.77       0.0  T
   2    -80.4508237 -0.212940E-04  0.744E-02    1.76       1.0  T
   3    -80.4508033  0.203692E-04  0.289E-02    1.76       1.0  T
   4    -80.4508311 -0.277870E-04  0.106E-02    1.76       1.4  T
   5    -80.4508317 -0.601266E-06  0.685E-03    1.76       2.1  T
   6    -80.4508317 -0.307521E-07  0.225E-03    1.76       6.4  T
   7    -80.4508318 -0.788693E-07  0.644E-04    1.76      22.2  T
   8    -80.4508318 -0.645375E-08  0.319E-04    1.76      44.8  T
     SCC iter.                  ...        0 min,  0.939 sec
     gradient                   ...        0 min,  0.156 sec
 * total energy  :   -79.5905523 Eh     change       -0.3982829E-02 Eh
   gradient norm :     0.0288815 Eh/α   predicted    -0.4337760E-02 (   8.91%)
   displ. norm   :     0.7973043 α      lambda       -0.5221938E-02
   maximum displ.:     0.3511556 α      in ANC's #2, #7, #51, ...

........................................................................
.............................. CYCLE   38 ..............................
........................................................................

 iter      E             dE          RMSdq      gap      omega  full diag
   1    -80.4581473 -0.804581E+02  0.124E-01    1.76       0.0  T
   2    -80.4581638 -0.164800E-04  0.734E-02    1.77       1.0  T
   3    -80.4581596  0.426994E-05  0.163E-02    1.77       1.0  T
   4    -80.4581676 -0.805994E-05  0.594E-03    1.77       2.4  T
   5    -80.4581680 -0.388624E-06  0.420E-03    1.77       3.4  T
   6    -80.4581680 -0.156669E-07  0.244E-03    1.77       5.9  T
   7    -80.4581681 -0.508186E-07  0.647E-04    1.77      22.1  T
   8    -80.4581681 -0.680809E-08  0.300E-04    1.77      47.6  T
     SCC iter.                  ...        0 min,  1.433 sec
     gradient                   ...        0 min,  0.126 sec
 * total energy  :   -79.5942099 Eh     change       -0.3657648E-02 Eh
   gradient norm :     0.0273608 Eh/α   predicted    -0.4270749E-02 (  16.76%)
   displ. norm   :     0.7216542 α      lambda       -0.3878907E-02
   maximum displ.:     0.3159303 α      in ANC's #23, #27, #7, ...

........................................................................
.............................. CYCLE   39 ..............................
........................................................................

 iter      E             dE          RMSdq      gap      omega  full diag
   1    -80.4607965 -0.804608E+02  0.136E-01    1.71       0.0  T
   2    -80.4608764 -0.799507E-04  0.786E-02    1.73       1.0  T
   3    -80.4608601  0.163551E-04  0.422E-02    1.74       1.0  T
   4    -80.4608929 -0.328477E-04  0.120E-02    1.74       1.2  T
   5    -80.4608953 -0.237411E-05  0.532E-03    1.74       2.7  T
   6    -80.4608953 -0.236663E-07  0.270E-03    1.74       5.3  T
   7    -80.4608954 -0.322997E-07  0.816E-04    1.74      17.5  T
   8    -80.4608954 -0.887935E-08  0.325E-04    1.74      43.9  T
     SCC iter.                  ...        0 min,  0.745 sec
     gradient                   ...        0 min,  0.107 sec
 * total energy  :   -79.5964814 Eh     change       -0.2271452E-02 Eh
   gradient norm :     0.0370274 Eh/α   predicted    -0.2949501E-02 (  29.85%)
   displ. norm   :     0.6379649 α      lambda       -0.2884382E-02
   maximum displ.:     0.3168309 α      in ANC's #23, #7, #27, ...

........................................................................
.............................. CYCLE   40 ..............................
........................................................................

 iter      E             dE          RMSdq      gap      omega  full diag
   1    -80.4598707 -0.804599E+02  0.893E-02    1.81       0.0  T
   2    -80.4599152 -0.444831E-04  0.510E-02    1.80       1.0  T
   3    -80.4599105  0.471006E-05  0.281E-02    1.79       1.0  T
   4    -80.4599228 -0.123217E-04  0.970E-03    1.79       1.5  T
   5    -80.4599247 -0.184471E-05  0.429E-03    1.79       3.3  T
   6    -80.4599247 -0.440702E-07  0.216E-03    1.79       6.6  T
   7    -80.4599247 -0.144052E-07  0.628E-04    1.79      22.7  T
   8    -80.4599247 -0.463163E-08  0.216E-04    1.79      66.1  T
     SCC iter.                  ...        0 min,  0.412 sec
     gradient                   ...        0 min,  0.092 sec
 * total energy  :   -79.5984813 Eh     change       -0.1999897E-02 Eh
   gradient norm :     0.0154194 Eh/α   predicted    -0.2029170E-02 (   1.46%)
   displ. norm   :     0.6814327 α      lambda       -0.2244885E-02
   maximum displ.:     0.3029012 α      in ANC's #23, #7, #27, ...

........................................................................
.............................. CYCLE   41 ..............................
........................................................................

 iter      E             dE          RMSdq      gap      omega  full diag
   1    -80.4583246 -0.804583E+02  0.104E-01    1.79       0.0  T
   2    -80.4583469 -0.222521E-04  0.611E-02    1.80       1.0  T
   3    -80.4583293  0.176055E-04  0.277E-02    1.80       1.0  T
   4    -80.4583540 -0.247067E-04  0.608E-03    1.80       2.3  T
   5    -80.4583546 -0.658092E-06  0.355E-03    1.80       4.0  T
   6    -80.4583547 -0.296657E-07  0.232E-03    1.80       6.2  T
   7    -80.4583547  0.655486E-08  0.826E-04    1.80      17.3  T
   8    -80.4583547 -0.164975E-07  0.230E-04    1.80      62.2  T
     SCC iter.                  ...        0 min,  0.880 sec
     gradient                   ...        0 min,  0.059 sec
 * total energy  :   -79.5999117 Eh     change       -0.1430481E-02 Eh
   gradient norm :     0.0243896 Eh/α   predicted    -0.1643651E-02 (  14.90%)
   displ. norm   :     0.6579917 α      lambda       -0.2282020E-02
   maximum displ.:     0.2723162 α      in ANC's #7, #27, #2, ...

........................................................................
.............................. CYCLE   42 ..............................
........................................................................

 iter      E             dE          RMSdq      gap      omega  full diag
   1    -80.4639714 -0.804640E+02  0.116E-01    1.80       0.0  T
   2    -80.4639848 -0.133839E-04  0.682E-02    1.81       1.0  T
   3    -80.4639835  0.123283E-05  0.140E-02    1.81       1.0  T
   4    -80.4639874 -0.386366E-05  0.632E-03    1.82       2.3  T
   5    -80.4639879 -0.452929E-06  0.376E-03    1.81       3.8  T
   6    -80.4639879 -0.283731E-07  0.178E-03    1.81       8.0  T
   7    -80.4639879 -0.239710E-07  0.588E-04    1.81      24.3  T
   8    -80.4639879 -0.491383E-08  0.258E-04    1.81      55.3  T
     SCC iter.                  ...        0 min,  0.089 sec
     gradient                   ...        0 min,  0.101 sec
 * total energy  :   -79.6011220 Eh     change       -0.1210261E-02 Eh
   gradient norm :     0.0373492 Eh/α   predicted    -0.1635016E-02 (  35.10%)
   displ. norm   :     0.5990456 α      lambda       -0.4911843E-02
   maximum displ.:     0.3471067 α      in ANC's #2, #27, #7, ...
 * RMSD in coord.:     2.2027977 α      energy gain  -0.2576142E+00 Eh

generating ANC from exact Hessian ...
Using Lindh-Hessian (1995)
 Shifting diagonal of input Hessian by    1.3457195922791546E-002
 Lowest  eigenvalues of input Hessian
    0.010000    0.012924    0.013093    0.013165    0.013306    0.013307
    0.013410    0.013411    0.013439    0.000000    0.000000    0.000000
    0.000000    0.000000    0.000000    0.013506    0.013537    0.013600
 Highest eigenvalues
    1.991036    2.041173    2.050878    2.352793    2.417133    2.877234


........................................................................
.............................. CYCLE   43 ..............................
........................................................................

 iter      E             dE          RMSdq      gap      omega  full diag
   1    -80.4775829 -0.804776E+02  0.169E-01    1.81       0.0  T
   2    -80.4776447 -0.617137E-04  0.983E-02    1.83       1.0  T
   3    -80.4776097  0.349993E-04  0.440E-02    1.83       1.0  T
   4    -80.4776629 -0.532275E-04  0.107E-02    1.84       1.3  T
   5    -80.4776646 -0.167652E-05  0.563E-03    1.84       2.5  T
   6    -80.4776647 -0.105480E-06  0.278E-03    1.84       5.1  T
   7    -80.4776647 -0.492947E-07  0.128E-03    1.84      11.2  T
   8    -80.4776647 -0.122156E-07  0.562E-04    1.84      25.4  T
   9    -80.4776647 -0.413232E-08  0.237E-04    1.84      60.2  T
     SCC iter.                  ...        0 min,  0.194 sec
     gradient                   ...        0 min,  0.102 sec
 * total energy  :   -79.6014921 Eh     change       -0.3700546E-03 Eh
   gradient norm :     0.0681329 Eh/α   predicted     0.0000000E+00 (-100.00%)
   displ. norm   :     0.2160973 α      lambda       -0.4234576E-02
   maximum displ.:     0.1734792 α      in ANC's #17, #15, #22, ...

........................................................................
.............................. CYCLE   44 ..............................
........................................................................

 iter      E             dE          RMSdq      gap      omega  full diag
   1    -80.4673399 -0.804673E+02  0.710E-02    1.81       0.0  T
   2    -80.4673668 -0.268555E-04  0.419E-02    1.81       1.0  T
   3    -80.4673626  0.423090E-05  0.244E-02    1.80       1.0  T
   4    -80.4673740 -0.114036E-04  0.674E-03    1.81       2.1  T
   5    -80.4673748 -0.844636E-06  0.270E-03    1.81       5.3  T
   6    -80.4673748 -0.313021E-07  0.153E-03    1.81       9.3  T
   7    -80.4673749 -0.163108E-07  0.608E-04    1.81      23.5  T
   8    -80.4673749 -0.316527E-08  0.289E-04    1.81      49.4  T
     SCC iter.                  ...        0 min,  0.068 sec
     gradient                   ...        0 min,  0.054 sec
 * total energy  :   -79.6044653 Eh     change       -0.2973252E-02 Eh
   gradient norm :     0.0190967 Eh/α   predicted    -0.2216527E-02 ( -25.45%)
   displ. norm   :     0.4373719 α      lambda       -0.2711193E-02
   maximum displ.:     0.3812374 α      in ANC's #17, #15, #22, ...

........................................................................
.............................. CYCLE   45 ..............................
........................................................................

 iter      E             dE          RMSdq      gap      omega  full diag
   1    -80.4624911 -0.804625E+02  0.864E-02    1.78       0.0  T
   2    -80.4625237 -0.325794E-04  0.514E-02    1.78       1.0  T
   3    -80.4625280 -0.435571E-05  0.345E-02    1.78       1.0  T
   4    -80.4625490 -0.209332E-04  0.632E-03    1.78       2.3  T
   5    -80.4625492 -0.221855E-06  0.309E-03    1.78       4.6  T
   6    -80.4625492 -0.332412E-07  0.180E-03    1.78       7.9  T
   7    -80.4625493 -0.496816E-07  0.733E-04    1.78      19.5  T
   8    -80.4625493 -0.380142E-08  0.334E-04    1.78      42.7  T
     SCC iter.                  ...        0 min,  0.086 sec
     gradient                   ...        0 min,  0.076 sec
 * total energy  :   -79.6067557 Eh     change       -0.2290346E-02 Eh
   gradient norm :     0.0193316 Eh/α   predicted    -0.1615893E-02 ( -29.45%)
   displ. norm   :     0.7984895 α      lambda       -0.3912380E-02
   maximum displ.:     0.7309788 α      in ANC's #17, #15, #22, ...

........................................................................
.............................. CYCLE   46 ..............................
........................................................................

[...]
          :                      SETUP                      :
          :.................................................:
          :  # basis functions                 118          :
          :  # atomic orbitals                 118          :
          :  # shells                           72          :
          :  # electrons                       134          :
          :  max. iterations                   250          :
          :  Hamiltonian                  GFN2-xTB          :
          :  restarted?                      false          :
          :  GBSA solvation                   true          :
          :  PC potential                    false          :
          :  electronic temp.          300.0000000     K    :
          :  accuracy                    1.0000000          :
          :  -> integral cutoff          0.2500000E+02      :
          :  -> integral neglect         0.1000000E-07      :
          :  -> SCF convergence          0.1000000E-05 Eh   :
          :  -> wf. convergence          0.1000000E-03 e    :
          :  Broyden damping             0.4000000          :
          :  net charge                          2          :
          :  unpaired electrons                  0          :
          ...................................................

 iter      E             dE          RMSdq      gap      omega  full diag
   1    -80.5291540 -0.805292E+02  0.181E-02    1.85       0.0  T
   2    -80.5291541 -0.950071E-07  0.105E-02    1.85       1.4  T
   3    -80.5291541 -0.678138E-08  0.983E-04    1.85      14.5  T
   4    -80.5291541 -0.160649E-07  0.520E-04    1.85      27.5  T

   *** convergence criteria satisfied after 4 iterations ***

         #    Occupation            Energy/Eh            Energy/eV
      -------------------------------------------------------------
         1        2.0000           -0.8553610             -23.2756
       ...           ...                  ...                  ...
        61        2.0000           -0.4737180             -12.8905
        62        2.0000           -0.4734575             -12.8834
        63        2.0000           -0.4715879             -12.8326
        64        2.0000           -0.4684897             -12.7483
        65        2.0000           -0.4669496             -12.7063
        66        2.0000           -0.4479168             -12.1884
        67        2.0000           -0.4399010             -11.9703 (HOMO)
        68                         -0.3718216             -10.1178 (LUMO)
        69                         -0.3458848              -9.4120
        70                         -0.2947675              -8.0210
        71                         -0.2854877              -7.7685
        72                         -0.2734416              -7.4407
       ...                                ...                  ...
       118                          1.1317409              30.7962
      -------------------------------------------------------------
                  HL-Gap            0.0680793 Eh            1.8525 eV
             Fermi-level           -0.4058613 Eh          -11.0440 eV

 SCC (total)                   0 d,  0 h,  0 min,  0.192 sec
 SCC setup                      ...        0 min,  0.003 sec (  1.448%)
 Dispersion                     ...        0 min,  0.002 sec (  1.302%)
 classical contributions        ...        0 min,  0.000 sec (  0.105%)
 integral evaluation            ...        0 min,  0.018 sec (  9.303%)
 iterations                     ...        0 min,  0.082 sec ( 42.552%)
 molecular gradient             ...        0 min,  0.086 sec ( 44.701%)
 printout                       ...        0 min,  0.001 sec (  0.563%)

         :::::::::::::::::::::::::::::::::::::::::::::::::::::
         ::                     SUMMARY                     ::
         :::::::::::::::::::::::::::::::::::::::::::::::::::::
         :: total energy             -79.671798615447 Eh    ::
         :: total w/o Gsasa/hb       -79.383250230836 Eh    ::
         :: gradient norm              0.001046761160 Eh/a0 ::
         :: HOMO-LUMO gap              1.852533146852 eV    ::
         ::.................................................::
         :: SCC energy               -80.529052951844 Eh    ::
         :: -> isotropic ES            1.082530657474 Eh    ::
         :: -> anisotropic ES         -0.057265100415 Eh    ::
         :: -> anisotropic XC          0.020031249115 Eh    ::
         :: -> dispersion             -0.042216724541 Eh    ::
         :: -> Gsolv                  -1.036529059741 Eh    ::
         ::    -> Gelec               -0.747980675129 Eh    ::
         ::    -> Gsasa                0.001720414973 Eh    ::
         ::    -> Ghb                 -0.291349559283 Eh    ::
         ::    -> Gshift               0.001080759698 Eh    ::
         :: repulsion energy           0.857254336396 Eh    ::
         :: add. restraining           0.000000000000 Eh    ::
         :: total charge               2.000000000000 e     ::
         :::::::::::::::::::::::::::::::::::::::::::::::::::::

           -------------------------------------------------
          |                Property Printout                |
           -------------------------------------------------

    * Orbital Energies and Occupations

         #    Occupation            Energy/Eh            Energy/eV
      -------------------------------------------------------------
         1        2.0000           -0.8553610             -23.2756
       ...           ...                  ...                  ...
        55        2.0000           -0.4877508             -13.2724
        56        2.0000           -0.4846750             -13.1887
        57        2.0000           -0.4828189             -13.1382
        58        2.0000           -0.4801117             -13.0645
        59        2.0000           -0.4792213             -13.0403
        60        2.0000           -0.4750030             -12.9255
        61        2.0000           -0.4737180             -12.8905
        62        2.0000           -0.4734575             -12.8834
        63        2.0000           -0.4715879             -12.8326
        64        2.0000           -0.4684897             -12.7483
        65        2.0000           -0.4669496             -12.7063
        66        2.0000           -0.4479168             -12.1884
        67        2.0000           -0.4399010             -11.9703 (HOMO)
        68                         -0.3718216             -10.1178 (LUMO)
        69                         -0.3458848              -9.4120
        70                         -0.2947675              -8.0210
        71                         -0.2854877              -7.7685
        72                         -0.2734416              -7.4407
        73                         -0.2345483              -6.3824
        74                         -0.2067293              -5.6254
        75                         -0.1473594              -4.0099
        76                         -0.0229108              -0.6234
        77                          0.0005147               0.0140
        78                          0.0104071               0.2832
       ...                                ...                  ...
       118                          1.1317409              30.7962
      -------------------------------------------------------------
                  HL-Gap            0.0680793 Eh            1.8525 eV
             Fermi-level           -0.4058613 Eh          -11.0440 eV

     #   Z          covCN         q      C6AA      α(0)
     1   6 C        2.971     0.041    27.083     8.536
     2   6 C        2.923     0.016    27.660     8.625
     3   6 C        2.918    -0.001    28.043     8.684
     4   6 C        2.969     0.029    27.343     8.577
     5   6 C        2.915    -0.007    28.201     8.708
     6   6 C        2.927     0.010    27.804     8.647
     7   1 H        0.926     0.129     1.546     1.944
     8   1 H        0.926     0.098     1.806     2.101
     9   1 H        0.926     0.115     1.650     2.009
    10   1 H        0.926     0.160     1.325     1.800
    11   6 C        1.870     0.347    23.476     7.826
    12   8 O        0.856     0.075    14.143     5.042
    13   8 O        1.660    -0.303    19.056     5.893
    14   6 C        2.689     0.393    20.353     7.383
    15   6 C        3.756    -0.222    24.978     7.126
    16   1 H        0.000    -1.000  3074.319   101.384
    17   1 H        0.000    -1.000  3074.319   101.384
    18   1 H        0.925     0.174     1.240     1.741
    19   1 H        0.924     0.186     1.172     1.693
    20   1 H        0.925     0.208     1.057     1.608
    21   6 C        2.706     0.372    20.688     7.445
    22   8 O        0.858    -0.458    22.882     6.413
    23   8 O        1.702    -0.244    18.050     5.736
    24   6 C        3.683     0.061    19.757     6.365
    25   6 C        3.751    -0.137    23.208     6.870
    26   1 H        0.924     0.074     2.041     2.234
    27   1 H        0.924     0.096     1.827     2.114
    28   1 H        0.925     0.086     1.914     2.163
    29   1 H        0.925     0.064     2.151     2.294
    30   1 H        0.925     0.073     2.051     2.240
    31  48 Cd       3.609     0.457   190.585    26.499
    32   8 O        2.311    -0.551    23.947     6.609
    33   1 H        0.805     0.410     0.466     1.073
    34   1 H        0.805     0.410     0.467     1.073
    35   8 O        1.771    -0.222    17.677     5.677
    36   1 H        0.802     0.461     0.388     0.978
    37   1 H        0.803     0.457     0.393     0.985
    38   8 O        2.314    -0.528    23.434     6.538
    39   1 H        0.805     0.413     0.462     1.068
    40   1 H        0.805     0.411     0.465     1.071
    41   8 O        2.299    -0.532    23.525     6.551
    42   1 H        0.805     0.409     0.469     1.075
    43   1 H        0.804     0.409     0.468     1.075
    44   8 O        2.302    -0.541    23.740     6.581
    45   1 H        0.805     0.405     0.476     1.083
    46   1 H        0.805     0.407     0.472     1.079
    47   8 O        2.311    -0.530    23.489     6.546
    48   1 H        0.805     0.412     0.464     1.070
    49   1 H        0.805     0.410     0.466     1.073

 Mol. C6AA /au·bohr⁶  :      63202.972791
 Mol. C8AA /au·bohr⁸  :    1249021.296722
 Mol. α(0) /au        :        422.288878


Wiberg/Mayer (AO) data.
largest (>0.10) Wiberg bond orders for each atom

 ---------------------------------------------------------------------------
     #   Z sym  total        # sym  WBO       # sym  WBO       # sym  WBO
 ---------------------------------------------------------------------------
     1   6 C    3.975 --    11 C    1.317     2 C    1.231     6 C    1.219
                            12 O    0.107
     2   6 C    3.968 --     3 C    1.497     1 C    1.231     7 H    0.955
     3   6 C    3.982 --     2 C    1.497     4 C    1.368     8 H    0.956
     4   6 C    3.973 --     3 C    1.368     5 C    1.360    21 C    0.952
     5   6 C    3.979 --     6 C    1.502     4 C    1.360     9 H    0.951
     6   6 C    3.958 --     5 C    1.502     1 C    1.219    10 H    0.946
     7   1 H    0.983 --     2 C    0.955
     8   1 H    0.988 --     3 C    0.956
     9   1 H    0.984 --     5 C    0.951
    10   1 H    0.974 --     6 C    0.946
    11   6 C    3.880 --    12 O    2.366     1 C    1.317
    12   8 O    2.660 --    11 C    2.366     1 C    0.107
    13   8 O    2.356 --    14 C    1.380    37 H    0.757    35 O    0.142
    14   6 C    3.873 --    13 O    1.380    35 O    1.343    15 C    1.075
    15   6 C    3.934 --    14 C    1.075    18 H    0.920    20 H    0.901
                            19 H    0.881
    16   1 H    0.000
    17   1 H    0.000
    18   1 H    0.969 --    15 C    0.920
    19   1 H    0.965 --    15 C    0.881
    20   1 H    0.957 --    15 C    0.901
    21   6 C    3.914 --    22 O    1.684    23 O    1.208     4 C    0.952
    22   8 O    2.006 --    21 C    1.684    23 O    0.178
    23   8 O    2.361 --    21 C    1.208    24 C    0.898    22 O    0.178
    24   6 C    3.885 --    25 C    1.016    26 H    0.965    27 H    0.962
                            23 O    0.898
    25   6 C    3.982 --    24 C    1.016    29 H    0.985    30 H    0.982
                            28 H    0.976
    26   1 H    0.994 --    24 C    0.965
    27   1 H    0.991 --    24 C    0.962
    28   1 H    0.991 --    25 C    0.976
    29   1 H    0.996 --    25 C    0.985
    30   1 H    0.994 --    25 C    0.982
    31  48 Cd   2.145 --    38 O    0.380    47 O    0.379    41 O    0.363
                            44 O    0.358    32 O    0.354    35 O    0.137
    32   8 O    2.106 --    33 H    0.820    34 H    0.819    31 Cd   0.354
    33   1 H    0.831 --    32 O    0.820
    34   1 H    0.832 --    32 O    0.819
    35   8 O    2.474 --    14 C    1.343    36 H    0.754    13 O    0.142
                            31 Cd   0.137
    36   1 H    0.788 --    35 O    0.754
    37   1 H    0.791 --    13 O    0.757
    38   8 O    2.150 --    40 H    0.820    39 H    0.818    31 Cd   0.380
    39   1 H    0.830 --    38 O    0.818
    40   1 H    0.831 --    38 O    0.820
    41   8 O    2.140 --    43 H    0.820    42 H    0.820    31 Cd   0.363
    42   1 H    0.833 --    41 O    0.820
    43   1 H    0.833 --    41 O    0.820
    44   8 O    2.116 --    45 H    0.824    46 H    0.822    31 Cd   0.358
    45   1 H    0.836 --    44 O    0.824
    46   1 H    0.834 --    44 O    0.822
    47   8 O    2.143 --    49 H    0.820    48 H    0.819    31 Cd   0.379
    48   1 H    0.831 --    47 O    0.819
    49   1 H    0.832 --    47 O    0.820
 ---------------------------------------------------------------------------

Topologies differ in total number of bonds
Writing topology from bond orders to xtbtopo.mol

molecular dipole:
                 x           y           z       tot (Debye)
 q only:       42.967       7.738       3.158
   full:       43.220       8.167       3.212     112.095
molecular quadrupole (traceless):
                xx          xy          yy          xz          yz          zz
 q only:      555.176     364.302     -96.211     -37.680      40.410    -458.965
  q+dip:      568.037     368.069    -100.811     -35.140      45.487    -467.226
   full:      564.435     366.997    -101.513     -35.868      43.116    -462.921

           -------------------------------------------------
          |                Geometry Summary                 |
           -------------------------------------------------

      molecular mass/u    :      442.7408973
   center of mass at/Å    :        3.0936723       1.5542793      -0.0366749
  moments of inertia/u·Å² :        0.8921281E+03   0.1383235E+05   0.1412844E+05
rotational constants/cm⁻¹ :        0.1889598E-01   0.1218711E-02   0.1193170E-02

 * 44 selected distances

     #   Z          #   Z                                           value/Å
     1   6 C        2   6 C                                       1.4172892
     2   6 C        3   6 C                                       1.3739080
     3   6 C        4   6 C                                       1.3978873
     4   6 C        5   6 C                                       1.3993879
     1   6 C        6   6 C                                       1.4202188
     5   6 C        6   6 C                                       1.3734028
     2   6 C        7   1 H                                       1.0772434
     3   6 C        8   1 H                                       1.0786775
     5   6 C        9   1 H                                       1.0787891
     6   6 C       10   1 H                                       1.0783364
     1   6 C       11   6 C                                       1.3562800
    11   6 C       12   8 O                                       1.1216910
    13   8 O       14   6 C                                       1.2679537
    14   6 C       15   6 C                                       1.4623338
    15   6 C       18   1 H                                       1.0869323
    15   6 C       19   1 H                                       1.0919768
    15   6 C       20   1 H                                       1.0883507
    21   6 C       22   8 O                                       1.2134576
    21   6 C       23   8 O                                       1.3111326
    23   8 O       24   6 C                                       1.4424434
Note: The following floating-point exceptions are signalling: IEEE_UNDERFLOW_FLAG IEEE_DENORMAL
normal termination of xtb
    24   6 C       25   6 C                                       1.5199377
    24   6 C       26   1 H                                       1.0925161
    24   6 C       27   1 H                                       1.0929183
    25   6 C       28   1 H                                       1.0850365
    25   6 C       29   1 H                                       1.0864631
    25   6 C       30   1 H                                       1.0858766
    31  48 Cd      32   8 O                                       2.1138747
    32   8 O       33   1 H                                       0.9676778 (min)
    32   8 O       34   1 H                                       0.9680178
    14   6 C       35   8 O                                       1.2786922
    35   8 O       36   1 H                                       0.9838809
    13   8 O       37   1 H                                       0.9797239
    31  48 Cd      38   8 O                                       2.1028765
    38   8 O       39   1 H                                       0.9692832
    38   8 O       40   1 H                                       0.9688162
    31  48 Cd      41   8 O                                       2.1408191 (max)
    41   8 O       42   1 H                                       0.9686477
    41   8 O       43   1 H                                       0.9699877
    31  48 Cd      44   8 O                                       2.1345897
    44   8 O       45   1 H                                       0.9678105
    44   8 O       46   1 H                                       0.9677526
    31  48 Cd      47   8 O                                       2.1127562
    47   8 O       48   1 H                                       0.9686616
    47   8 O       49   1 H                                       0.9693290

 * 5 distinct bonds (by element types)

   Z      Z             #   av. dist./Å        max./Å        min./Å
   1 H    6 C          12     1.0852597     1.0929183     1.0772434
   6 C    6 C           9     1.4134050     1.5199377     1.3562800
   1 H    8 O          12     0.9707991     0.9838809     0.9676778
   6 C    8 O           6     1.2725617     1.4424434     1.1216910
   8 O   48 Cd          5     2.1209832     2.1408191     2.1028765


optimized geometry written to: xtbopt.xyz


           -------------------------------------------------
          | TOTAL ENERGY              -79.671798615447 Eh   |
          | GRADIENT NORM               0.001046761160 Eh/α |
          | HOMO-LUMO GAP               1.852533146852 eV   |
           -------------------------------------------------

------------------------------------------------------------------------
 * finished run on 2026/05/26 at 02:20:09.916     
------------------------------------------------------------------------
 total:
 * wall-time:     0 d,  0 h,  1 min, 22.159 sec
 *  cpu-time:     0 d,  0 h,  2 min, 13.236 sec
 * ratio c/w:     1.622 speedup
 SCF:
 * wall-time:     0 d,  0 h,  0 min,  1.610 sec
 *  cpu-time:     0 d,  0 h,  0 min,  1.834 sec
 * ratio c/w:     1.140 speedup
 ANC optimizer:
 * wall-time:     0 d,  0 h,  1 min, 20.511 sec
 *  cpu-time:     0 d,  0 h,  2 min, 11.344 sec
 * ratio c/w:     1.631 speedup

